/*--------------------------------*- C++ -*----------------------------------*\
| =========                 |                                                 |
| \\      /  F ield         | OpenFOAM: The Open Source CFD Toolbox           |
|  \\    /   O peration     | Version:  5.x                                   |
|   \\  /    A nd           | Web:      www.OpenFOAM.org                      |
|    \\/     M anipulation  |                                                 |
\*---------------------------------------------------------------------------*/
/*   Windows 32 and 64 bit porting by blueCAPE: http://www.bluecape.com.pt   *\
|  Based on Windows porting (2.0.x v4) by Symscape: http://www.symscape.com   |
\*---------------------------------------------------------------------------*/
FoamFile
{
    version     2.0;
    format      ascii;
    class       volScalarField;
    location    "0.00000000";
    object      p;
}
// * * * * * * * * * * * * * * * * * * * * * * * * * * * * * * * * * * * * * //

dimensions      [0 2 -2 0 0 0 0];

internalField   nonuniform List<scalar> 
51000
(
1.0568878e-005
-0.00016186346
-0.00019772521
-8.8004039e-005
4.1330404e-005
0.00012726333
-5.3801915e-006
-0.0001049431
-0.0001100407
-9.1865623e-005
-4.9163636e-006
-3.5709591e-005
-5.9519107e-005
4.6182666e-005
0.00010343201
1.8828095e-005
-2.5124932e-005
3.2348436e-005
-1.9217694e-005
6.1515916e-005
0.00018359761
0.00011490415
6.6388609e-006
-0.00027765767
-0.00028170535
-0.00016269343
-0.00018810377
-0.00014350429
-5.9936888e-005
4.1613228e-005
8.342853e-006
-0.00016665551
-0.00020319691
-9.0669246e-005
4.0763811e-005
0.00012813362
-6.4598803e-006
-0.00010735205
-0.0001115236
-9.214666e-005
-4.3920229e-006
-3.6059734e-005
-5.9950822e-005
4.7092171e-005
0.00010345278
1.605475e-005
-3.0069415e-005
2.874596e-005
-2.1618524e-005
5.8877744e-005
0.00018217697
0.00011790241
1.2754841e-005
-0.00027539478
-0.00028181991
-0.00016381465
-0.00019043368
-0.00014451543
-6.0433915e-005
4.0408889e-005
9.1394156e-006
-0.00017016941
-0.00021710134
-0.00010148745
3.7552542e-005
0.0001308498
-8.1869712e-006
-0.00011208249
-0.00011169091
-9.0330609e-005
-3.2048414e-006
-3.7191719e-005
-6.1421139e-005
4.8120968e-005
0.000105163
1.4781464e-005
-3.5540839e-005
2.4031807e-005
-3.0558475e-005
5.2478847e-005
0.00018294338
0.00012362183
1.6822202e-005
-0.00028203229
-0.00028584563
-0.0001653411
-0.00019397636
-0.00014481578
-5.8710241e-005
4.1549751e-005
1.1713457e-005
-0.00016926438
-0.0002397865
-0.00013001578
2.0934962e-005
0.00012922119
-6.8191308e-006
-0.00012277955
-0.00012440912
-9.5590909e-005
-2.9543612e-006
-3.9366118e-005
-6.4027702e-005
5.0066897e-005
0.00010832925
1.6127622e-005
-4.1048005e-005
2.1026034e-005
-3.7872574e-005
2.4417882e-005
0.00016444806
0.00012241277
2.0855034e-005
-0.00029660667
-0.00029326507
-0.00016658853
-0.00019999992
-0.00014607686
-5.6940861e-005
4.3634518e-005
1.4380969e-005
-0.00016808985
-0.00025210512
-0.0001641138
-6.3530509e-006
0.00012205455
-8.5712338e-006
-0.00013462062
-0.00015320784
-0.00012081998
-1.6281084e-005
-4.4511627e-005
-6.7274547e-005
5.4655732e-005
0.00011515339
1.9226669e-005
-4.3165867e-005
2.3208247e-005
-3.8275778e-005
-4.7105994e-006
0.00011920117
0.00010042162
2.2811035e-005
-0.00031093105
-0.00030535943
-0.00016633001
-0.00020897712
-0.00015034428
-5.5815074e-005
4.4710487e-005
1.3508078e-005
-0.00017616262
-0.00024953109
-0.0001852458
-3.6520769e-005
0.00010812835
-1.4339661e-005
-0.00014376889
-0.00020051613
-0.00015400258
-4.2576086e-005
-5.5355036e-005
-7.1448294e-005
5.9815371e-005
0.00012797872
2.3030896e-005
-4.5148548e-005
3.1358189e-005
-4.4251605e-005
-1.3400757e-006
5.753388e-005
5.5075428e-005
1.9873701e-005
-0.00030674397
-0.00031345704
-0.00016546577
-0.0002196864
-0.00016138161
-5.6808709e-005
4.1470755e-005
6.750569e-006
-0.00018965745
-0.0002504928
-0.00018916488
-6.2637665e-005
8.4103866e-005
-1.9621273e-005
-0.00014486161
-0.00024996583
-0.00018243286
-6.9623657e-005
-6.8774071e-005
-7.2700015e-005
6.9664648e-005
0.00014534381
3.167035e-005
-4.4434103e-005
3.0784058e-005
-6.1079247e-005
9.9374105e-006
2.0349364e-005
-8.3188383e-006
2.2352373e-006
-0.0002857386
-0.00030311896
-0.00016099004
-0.00022652081
-0.00017505867
-5.876008e-005
3.5566657e-005
-1.8894605e-006
-0.00019786374
-0.00025681564
-0.00018331635
-8.5003638e-005
5.3863312e-005
-2.3236334e-005
-0.00013251698
-0.00028520639
-0.00021170875
-8.7140502e-005
-7.9951563e-005
-8.186607e-005
7.5445811e-005
0.00016222243
4.6094327e-005
-4.2162948e-005
2.4334378e-005
-6.9008832e-005
3.3500582e-006
2.0363951e-005
-8.0354931e-005
-2.5083072e-005
-0.00025959552
-0.00028620432
-0.00015784045
-0.00022953525
-0.00018445818
-5.6799934e-005
3.1807646e-005
-7.9910642e-006
-0.00019786745
-0.00026009537
-0.00017869934
-0.00010429304
2.5966219e-005
-2.6322917e-005
-0.00010456798
-0.00031049809
-0.00025206827
-0.00010378175
-9.247447e-005
-9.970528e-005
6.8376852e-005
0.00016679177
5.8514927e-005
-3.9848649e-005
1.3290286e-005
-6.5619396e-005
1.4456001e-005
2.7104299e-005
-0.00014274144
-5.9436346e-005
-0.00023761739
-0.00027736399
-0.00015724482
-0.00022714015
-0.00018803384
-5.474138e-005
2.8241605e-005
-1.2061315e-005
-0.00019275032
-0.00025951255
-0.00017886801
-0.00011596409
4.9461127e-006
-2.1901409e-005
-6.9482973e-005
-0.00032505261
-0.00030604314
-0.00013300561
-0.00010840379
-0.00011492521
5.4572801e-005
0.0001617752
6.3886648e-005
-3.7881431e-005
4.9758665e-006
-6.8810786e-005
2.6489188e-005
3.3321733e-005
-0.00018290825
-0.0001012941
-0.00021749065
-0.00026820008
-0.00014562339
-0.00021219122
-0.00018295563
-5.1637804e-005
2.5502915e-005
-1.2289516e-005
-0.00018660774
-0.00025512654
-0.00018045188
-0.00011754054
-1.0083652e-005
-1.2898788e-005
-4.1279455e-005
-0.00030117937
-0.00036100038
-0.000169246
-0.00012217249
-0.00011808345
4.4962422e-005
0.0001539864
6.7545391e-005
-3.7429164e-005
7.3373243e-009
-6.8289452e-005
2.6836695e-005
3.5589917e-005
-0.00019779434
-0.00014090427
-0.00019129651
-0.00024430636
-0.0001204462
-0.00018962483
-0.00017519744
-4.8708297e-005
2.5594246e-005
-1.1256093e-005
-0.00018297767
-0.00024768909
-0.00017721596
-0.00011319211
-2.0168472e-005
-1.02591e-005
-2.5782233e-005
-0.00024213025
-0.00038888574
-0.0002061572
-0.00014315301
-0.00011565832
3.9795064e-005
0.00014632447
6.9563248e-005
-3.7887843e-005
-4.3607537e-006
-6.713868e-005
3.3253958e-005
3.9904014e-005
-0.00020473746
-0.00018120759
-0.00016570414
-0.00020919845
-9.3343391e-005
-0.00017259542
-0.00017305273
-4.7178303e-005
2.4846293e-005
-7.6138625e-006
-0.00017008613
-0.00022735061
-0.00015792794
-0.00010486621
-2.0542546e-005
-1.5931089e-005
-1.6910661e-005
-0.00018030923
-0.00037809404
-0.00024198834
-0.00017512776
-0.00012026161
3.3840803e-005
0.00013922224
6.585143e-005
-4.0283262e-005
-8.2288058e-006
-6.3257782e-005
4.3531175e-005
4.5741171e-005
-0.00022066281
-0.00022567502
-0.00015437582
-0.00018428463
-7.7924482e-005
-0.00016312595
-0.0001771401
-5.0277248e-005
2.0786012e-005
-1.1763748e-005
-0.00015235841
-0.00020133029
-0.00013704924
-0.00010180215
-1.8141292e-005
-2.7206911e-005
-1.5362101e-005
-0.00014131336
-0.00035649286
-0.00027678203
-0.00020813644
-0.00013263212
2.1227972e-005
0.00012775441
5.2074523e-005
-4.7064395e-005
-8.5670615e-006
-5.8848976e-005
5.3657402e-005
5.1080453e-005
-0.00023589521
-0.00026871536
-0.00015930713
-0.00017544823
-8.3568168e-005
-0.00016606532
-0.00018604275
-5.8226125e-005
5.2709838e-006
-2.6113369e-005
-0.00014977145
-0.00019011377
-0.00012843336
-9.7706106e-005
-1.6600577e-005
-3.6236622e-005
-2.3322841e-005
-0.000131244
-0.00034730791
-0.00029882325
-0.00023412238
-0.00015018101
2.5071235e-007
0.00010717201
2.8836677e-005
-5.6673748e-005
-4.7691372e-006
-4.5243466e-005
6.9179164e-005
5.3017666e-005
-0.00023965984
-0.00029962541
-0.00017717522
-0.00017629548
-9.6081124e-005
-0.00017000968
-0.00019485768
-6.8109784e-005
-1.4369722e-005
-4.6002304e-005
-0.00015583173
-0.00018717832
-0.00012772688
-8.9808933e-005
-2.1747613e-005
-3.0617322e-005
-2.9687086e-005
-0.00013463848
-0.00035252628
-0.00030771816
-0.00024690012
-0.00017633624
-2.6968624e-005
8.1003304e-005
-2.4956936e-006
-6.7054388e-005
-4.8590937e-006
-3.852329e-005
7.5903163e-005
5.5900181e-005
-0.00021438286
-0.00029429504
-0.00018830142
-0.00017557757
-0.00011381242
-0.0001734707
-0.00019539239
-7.7263963e-005
-3.4663658e-005
-7.3552684e-005
-0.00016370168
-0.00018872243
-0.0001318744
-8.3286069e-005
-2.5829636e-005
-1.599409e-005
-3.2180545e-005
-0.00013057353
-0.00034250273
-0.00032205021
-0.00025181307
-0.00020541908
-5.7819073e-005
6.4247015e-005
-3.1432437e-005
-8.4549887e-005
-1.3604965e-005
-4.3909336e-005
6.4167005e-005
5.3174709e-005
-0.00016665683
-0.00023266773
-0.00016879588
-0.00016891634
-0.00012600358
-0.00017541428
-0.00019044028
-8.752307e-005
-5.3053636e-005
-9.913793e-005
-0.00016209171
-0.00018099952
-0.00012709909
-8.784356e-005
-4.0015986e-005
-1.2479187e-005
-3.3451689e-005
-0.00012697291
-0.00032702811
-0.00033397919
-0.00028002682
-0.00026205768
-9.224644e-005
6.6535779e-005
-4.2346704e-005
-0.00010807165
-3.5918495e-005
-5.8355092e-005
4.166454e-005
4.7380872e-005
-0.00010836805
-0.00015223918
-0.00013950202
-0.00016385426
-0.00013317703
-0.00017463623
-0.00018697747
-0.00010039476
-7.1178054e-005
-0.00012025821
-0.00016525289
-0.00016454136
-0.00010522942
-9.4384472e-005
-6.0085518e-005
-1.8021593e-005
-4.3285298e-005
-0.00012596352
-0.0003161436
-0.00033833747
-0.00031349319
-0.000348009
-0.00015123909
7.9253976e-005
-2.626881e-005
-0.00012005732
-5.3564252e-005
-7.3991133e-005
1.3068213e-005
3.6904417e-005
-7.257278e-005
-9.8445858e-005
-0.00011705692
-0.00016260526
-0.00014424263
-0.00017400878
-0.00018201228
-0.00011530843
-8.6122564e-005
-0.00013315849
-0.00015669225
-0.00014654336
-9.1819086e-005
-9.7482564e-005
-6.0592178e-005
-1.684993e-005
-4.1787003e-005
-0.00011754141
-0.00029430729
-0.00037378955
-0.00034876788
-0.00038847912
-0.00023404232
5.6174676e-005
1.8921482e-007
-0.00011900425
-7.9561362e-005
-9.196147e-005
-2.0984411e-005
6.5808462e-006
-6.6525532e-005
-6.3341725e-005
-8.4456467e-005
-0.00014752781
-0.0001552593
-0.0001770148
-0.00017040133
-0.00012723681
-9.5632342e-005
-0.00014864903
-0.00015438782
-0.00013940631
-9.5260904e-005
-0.00010181592
-4.4280026e-005
-1.1619827e-005
-2.1600488e-005
-9.8089416e-005
-0.00025364534
-0.00039576483
-0.00037397981
-0.00037369368
-0.00028807786
5.152465e-005
3.6883584e-005
-0.00010278741
-9.212245e-005
-0.00011040789
-6.747011e-005
-3.4028096e-005
-7.2297487e-005
-3.9098542e-005
-7.2074309e-005
-0.0001469208
-0.00015437053
-0.00018829549
-0.00017392578
-0.00014557514
-0.00012535695
-0.00018210498
-0.00017992353
-0.00014342983
-0.00010113482
-0.00010294587
-5.0833511e-005
-8.6790389e-006
-1.5916879e-005
-0.00011050073
-0.00020472837
-0.00034349686
-0.00037404962
-0.00031122737
-0.00027672806
2.3146599e-005
3.6772247e-005
-9.5103272e-005
-0.00010107868
-0.00011911591
-8.3597813e-005
-4.905387e-005
-9.9908637e-005
-6.7901079e-005
-6.2255729e-005
-0.00011991701
-0.00013755424
-0.00017925767
-0.00017041328
-0.00015605266
-0.00016289029
-0.00021881916
-0.00021385022
-0.00014210454
-0.00011193479
-0.00011166212
-7.5950708e-005
-2.6836139e-005
-2.7941938e-005
-0.00013948501
-0.00014629721
-0.00024149575
-0.00036086317
-0.0002648509
-0.00023000835
-1.0522282e-005
3.6224383e-005
-6.9107751e-005
-9.2250478e-005
-0.00012594046
-9.5805389e-005
-6.0827533e-005
-0.0001359502
-0.00010679781
-6.2629563e-005
-0.00010736002
-0.00012394374
-0.00014859284
-0.00016002453
-0.00015317843
-0.00017629769
-0.00021396367
-0.00021054345
-0.00012830889
-0.00011471604
-0.00012555062
-9.31014e-005
-5.3251782e-005
-6.1565504e-005
-0.00015102804
-0.00010688427
-0.00014485811
-0.00028519012
-0.00023000884
-0.00020279594
-3.5632531e-005
2.5484672e-005
-6.6925741e-005
-8.5918792e-005
-0.00010987222
-0.00011925728
-0.00011389551
-0.00016669472
-0.00014290488
-9.4937512e-005
-0.00011083718
-0.00011089783
-0.00011809959
-0.00015008072
-0.00015970706
-0.00016455367
-0.00019737756
-0.00018848164
-0.00012030543
-0.00011574694
-0.00011997719
-8.6982624e-005
-6.6770538e-005
-7.2697107e-005
-0.0001458813
-9.0378335e-005
-9.9176583e-005
-0.00021519935
-0.00020078035
-0.00016375731
-5.0174777e-005
-9.9288155e-006
-6.3823008e-005
-7.9026146e-005
-0.00012773977
-0.0001495587
-0.00013937872
-0.00016959579
-0.00013491464
-0.00011341728
-0.00011910867
-0.00011327484
-0.00010532762
-0.0001384279
-0.00015971115
-0.00014376719
-0.00018472426
-0.00017865953
-0.00011787106
-0.000121744
-0.00011801292
-8.0308299e-005
-8.7455656e-005
-0.00010048431
-0.00013749254
-6.734449e-005
-0.00010291037
-0.00021921397
-0.00017890966
-9.7457936e-005
-1.7661348e-005
-9.741745e-006
-6.7289737e-005
-8.3760828e-005
-0.00011809619
-0.0001368467
-0.0001285921
-0.0001364789
-0.00010067702
-0.00011197573
-0.00011604557
-9.7257779e-005
-9.7330725e-005
-0.00012161514
-0.00013449972
-0.00012115695
-0.0001615526
-0.00015574866
-0.00010385526
-0.00013236617
-0.0001280261
-7.2902359e-005
-8.6703393e-005
-9.3842296e-005
-0.00011859408
-8.056989e-005
-8.2201353e-005
-0.00019484863
-0.0001869777
-9.4113787e-005
-1.1278586e-005
-3.4708047e-006
-7.7195223e-005
-0.00010946093
-0.00012734863
-0.00012985456
-0.00010475792
-8.5498409e-005
-7.2399364e-005
-0.00011347203
-0.00012780532
-9.4597507e-005
-8.5376797e-005
-9.6736102e-005
-0.00010760292
-0.00011683593
-0.00016432206
-0.00017656696
-0.00011118233
-0.0001064428
-0.00016031513
-0.00013188626
-9.1527401e-005
-8.5874976e-005
-0.00010693687
-9.6075915e-005
-9.8102479e-005
-0.00016831015
-0.00017645891
-9.3314227e-005
-3.2912766e-005
-2.2191851e-005
-8.3380824e-005
-0.00010973839
-0.00010591284
-9.4087151e-005
-7.6715241e-005
-7.4453875e-005
-7.5805089e-005
-0.00011196053
-0.00013027721
-0.00010688351
-0.00011504833
-0.00011813932
-0.00010030797
-0.00012260783
-0.00013330006
-0.00018632209
-0.00014281815
-7.5874761e-005
-0.00013986907
-0.00017809475
-0.00012955672
-0.00012467926
-0.00012680958
-9.1550439e-005
-0.00011499353
-0.00018769421
-0.00018086141
-5.0643757e-005
-1.9270612e-005
-3.9037785e-005
-8.5059764e-005
-0.0001458772
-0.00012743155
-6.6499252e-005
-5.3652807e-005
-8.0780938e-005
-8.9282731e-005
-0.00010266584
-0.00010894985
-0.00010669235
-0.0001137859
-0.00012690674
-0.00013157412
-0.00011861464
-0.00010738748
-0.00015463933
-0.0001373019
-5.9955212e-005
-0.00012172084
-0.00019049008
-0.00015444935
-0.00014871021
-0.000113963
-7.0337106e-005
-0.00010080037
-0.00012696392
-0.00014061678
-4.3036984e-005
4.9556857e-005
-8.2601501e-007
-7.073303e-005
-0.00010499442
-0.00011405338
-8.7663235e-005
-7.5954576e-005
-9.1028688e-005
-8.0865873e-005
-8.4752657e-005
-9.6939512e-005
-8.0878792e-005
-8.4570967e-005
-0.0001179799
-0.00013824557
-0.00010538863
-9.9687175e-005
-0.00012695741
-0.0001366944
-9.0451032e-005
-9.8542831e-005
-0.00013987166
-0.00012724957
-0.0001188143
-8.8056052e-005
-8.6118629e-005
-0.00010857678
-9.8278431e-005
-0.00011842032
-6.9029276e-005
-1.5521816e-005
-5.1494833e-005
-0.00010893777
-0.00013375824
-0.00012501744
-9.5253965e-005
-7.2871696e-005
-8.0610749e-005
-7.8863246e-005
-7.2440411e-005
-7.0770766e-005
-6.7659817e-005
-8.1057166e-005
-9.6959217e-005
-0.00012052949
-0.00010509648
-0.00010299345
-0.00011722591
-0.00012485491
-0.00010037367
-9.7239361e-005
-0.00012645781
-0.00012880472
-0.0001193005
-8.8112829e-005
-7.7170523e-005
-8.7335238e-005
-8.3645216e-005
-0.00011414846
-7.449056e-005
-1.0255773e-005
-5.0718794e-005
-0.00011883894
-0.00014806871
-0.00012760829
-9.2004273e-005
-7.5753229e-005
-7.6517775e-005
-7.2484775e-005
-6.7910339e-005
-6.8496028e-005
-7.2308743e-005
-8.7727966e-005
-9.6285203e-005
-0.00011821496
-0.00011209479
-9.6922582e-005
-0.00010959817
-0.0001276885
-0.00011322825
-0.00011376202
-0.00012877161
-0.0001185851
-0.00011187225
-9.4849196e-005
-7.8917917e-005
-8.4846171e-005
-9.6738064e-005
-0.00011144734
-6.8654306e-005
-1.8356732e-005
-5.2979049e-005
-0.00011374238
-0.00013628524
-0.00010968401
-8.1567471e-005
-7.1855207e-005
-7.1030316e-005
-6.2640017e-005
-5.9317286e-005
-7.1636434e-005
-7.9127242e-005
-8.4885249e-005
-8.829275e-005
-0.00010660534
-0.00010672706
-0.00010181457
-0.00010664294
-0.00012188871
-0.00011715809
-0.00010628358
-0.00010268649
-9.501889e-005
-9.6451317e-005
-9.1826511e-005
-8.3260057e-005
-7.6945937e-005
-7.3684959e-005
-8.8329653e-005
-7.557263e-005
-4.9132564e-005
-6.0476615e-005
-9.1672416e-005
-0.00011360503
-0.00010889412
-9.6931363e-005
-8.3250085e-005
-7.0911331e-005
-6.2617063e-005
-6.1773726e-005
-7.3809929e-005
-8.7834188e-005
-9.1982884e-005
-8.8505424e-005
-9.5492665e-005
-9.9757796e-005
7.5203515e-006
-0.00021051394
-0.00036168807
-0.00029851447
-0.00016410076
-2.9289165e-005
2.7668441e-005
-5.2624998e-005
-0.00013917208
-8.6016871e-005
2.5258837e-005
-2.5729355e-005
-0.00017236178
-7.2243009e-005
9.9986875e-005
0.00012865213
7.9192239e-005
1.3894305e-005
-8.1498816e-005
-1.566765e-006
0.00012550605
-6.6439532e-005
-0.00014791491
-0.00018362381
-0.00011227259
4.4762236e-005
-2.7023905e-005
-0.00017659024
-9.2205435e-005
6.3730884e-005
8.5021667e-006
-0.0002093577
-0.00036136926
-0.00029969988
-0.00016457247
-3.088436e-005
2.4069065e-005
-5.6914859e-005
-0.00014167278
-8.6955162e-005
2.5493763e-005
-2.4533817e-005
-0.00017275643
-7.3367567e-005
9.9080104e-005
0.00012759207
7.8090622e-005
1.3161914e-005
-8.1676066e-005
-2.9703126e-006
0.00012500697
-6.3674493e-005
-0.00014575612
-0.00018331979
-0.00011451892
4.3364403e-005
-2.6233826e-005
-0.00017762218
-9.435044e-005
6.3695308e-005
1.1485343e-005
-0.00020971364
-0.00036932679
-0.00030768136
-0.0001655793
-2.9798489e-005
2.5501865e-005
-6.0756987e-005
-0.00014891412
-8.9033107e-005
2.8325064e-005
-2.1788599e-005
-0.00017613913
-7.65234e-005
9.8950041e-005
0.00012866684
8.0068585e-005
1.4490551e-005
-8.2386671e-005
-5.2393799e-006
0.00012503033
-6.0980115e-005
-0.00014686762
-0.00018527306
-0.00011721102
4.1165464e-005
-2.5969026e-005
-0.00017900459
-9.6061897e-005
6.5572647e-005
1.6283311e-005
-0.00020741563
-0.00037990281
-0.00032560143
-0.00017581201
-3.2192606e-005
3.069745e-005
-5.6984847e-005
-0.00015720082
-9.9438324e-005
2.6157755e-005
-1.8426057e-005
-0.00017792797
-8.0291575e-005
9.7292112e-005
0.00012847721
8.0684954e-005
1.7604296e-005
-8.0253479e-005
-9.2952924e-006
0.00012380156
-5.5425554e-005
-0.00014950572
-0.0001901556
-0.00011956924
3.8312009e-005
-2.8172163e-005
-0.00018188375
-9.81502e-005
6.8541789e-005
2.2344542e-005
-0.00020296129
-0.00038449518
-0.00034465625
-0.00019402698
-4.2386328e-005
3.5865172e-005
-4.9846301e-005
-0.00015928404
-0.00011248545
1.7996713e-005
-2.0745373e-005
-0.00017970689
-8.106643e-005
9.4461555e-005
0.00012565389
7.5749181e-005
1.7645744e-005
-7.5798965e-005
-8.3199044e-006
0.00012295503
-5.0321493e-005
-0.00015233713
-0.00019774773
-0.00012196034
3.7130506e-005
-3.2194818e-005
-0.00018625327
-0.00010135745
7.1208706e-005
2.770175e-005
-0.00020108245
-0.00038314447
-0.00035629963
-0.00020967162
-6.1725688e-005
3.5973945e-005
-4.5182609e-005
-0.00016026606
-0.00012618805
2.8528117e-006
-2.681728e-005
-0.00018290483
-7.765974e-005
9.5181687e-005
0.00012029012
6.5242221e-005
1.4417552e-005
-7.0089236e-005
-4.2198133e-006
0.00013329801
-4.1391241e-005
-0.00016037597
-0.00020852
-0.00012886245
3.659401e-005
-3.8072499e-005
-0.00019362345
-0.00010664298
7.1251986e-005
3.0939484e-005
-0.00020574226
-0.00038485853
-0.0003644395
-0.00021818519
-8.2879599e-005
2.8714776e-005
-4.4087327e-005
-0.00016783122
-0.00013858889
-1.5632075e-005
-3.1965468e-005
-0.00018360581
-6.9414529e-005
0.00010168181
0.00011588732
5.7220682e-005
8.2374877e-006
-6.5336569e-005
-5.9348324e-006
0.00014497149
-1.8059325e-005
-0.00016954703
-0.00022885313
-0.00014832813
2.9894268e-005
-4.424348e-005
-0.000204686
-0.00011507427
6.7312226e-005
3.0218514e-005
-0.00021843866
-0.00039593014
-0.00037817402
-0.00022710525
-0.00010180114
1.5439201e-005
-4.7279689e-005
-0.00017416284
-0.00015416822
-3.6972348e-005
-3.727474e-005
-0.00018092212
-5.6239758e-005
0.00011128935
0.00011362574
5.5508454e-005
2.5488548e-006
-5.8799663e-005
-8.1147808e-006
0.00014594686
7.9816732e-006
-0.00016511659
-0.00024195646
-0.00017516683
9.2366249e-006
-5.2289609e-005
-0.00021663797
-0.00012555665
5.8841901e-005
2.5178828e-005
-0.00023830256
-0.00042232748
-0.00041033914
-0.00024329407
-0.0001202884
-1.1463662e-006
-5.2919412e-005
-0.00017258688
-0.00017347925
-5.8565335e-005
-4.625692e-005
-0.00018312783
-4.3598988e-005
0.00012185742
0.00011203014
5.7726018e-005
-2.2817647e-006
-4.9333568e-005
-1.7583586e-005
0.00014053125
2.5447197e-005
-0.00015188999
-0.00023506099
-0.00018805681
-1.357741e-005
-5.962222e-005
-0.0002240741
-0.00013508382
4.7108331e-005
1.5262173e-005
-0.00025731836
-0.0004514887
-0.000451652
-0.00025777792
-0.00012871511
-1.661296e-005
-5.6632926e-005
-0.00015695826
-0.00019287009
-7.9934449e-005
-5.8224599e-005
-0.00018845139
-3.8259191e-005
0.00012833834
0.00010720549
5.928024e-005
-1.2657799e-005
-4.7549929e-005
-4.6557097e-005
0.00011928981
2.9841783e-005
-0.00013697791
-0.00022060761
-0.000184143
-2.5209203e-005
-6.1511667e-005
-0.0002240204
-0.00014301127
3.467379e-005
2.2285602e-006
-0.00026698394
-0.00046884175
-0.00048021748
-0.00026414755
-0.00011598588
-2.1929717e-005
-6.8616784e-005
-0.00014490081
-0.00020773943
-8.4741895e-005
-6.0494455e-005
-0.00018990904
-3.727584e-005
0.0001341204
0.00010029074
5.8738283e-005
-2.3866867e-005
-6.1512136e-005
-7.7516582e-005
8.8042683e-005
3.3135862e-005
-0.00010955256
-0.00020103304
-0.00016864886
-2.2486548e-005
-5.9720094e-005
-0.0002153532
-0.00014775922
2.0638943e-005
-1.4028884e-005
-0.00026540403
-0.00046343538
-0.00046889559
-0.00026582341
-8.6489621e-005
-1.4073027e-005
-8.7157636e-005
-0.00015570632
-0.00022382179
-7.542221e-005
-4.3263537e-005
-0.00018137736
-3.9304539e-005
0.00013726085
9.3723394e-005
5.3422081e-005
-2.823185e-005
-8.359952e-005
-8.0868281e-005
6.2610164e-005
2.6164455e-005
-7.9383916e-005
-0.00016396599
-0.00013839845
-1.005743e-005
-5.8755557e-005
-0.00020364044
-0.00014224206
1.1500969e-005
-2.3219083e-005
-0.00024987382
-0.00042505068
-0.00038192117
-0.00025560191
-5.1145211e-005
1.5975423e-005
-8.1857014e-005
-0.00017558013
-0.00024000098
-8.1361912e-005
-2.8565153e-005
-0.00016591986
-4.2060525e-005
0.00013332411
8.7004236e-005
4.3446547e-005
-2.3939369e-005
-9.4665603e-005
-5.0087695e-005
5.1275363e-005
1.3427802e-005
-5.8578054e-005
-0.00013986191
-0.00012077684
2.8646159e-006
-5.7608089e-005
-0.00019603734
-0.00012723899
1.2506104e-005
-3.8952655e-005
-0.00022780911
-0.00038679528
-0.00027337245
-0.00025967971
-3.8100552e-005
6.1267748e-005
-4.4514158e-005
-0.00019007683
-0.00026395153
-0.00010652403
-3.4995459e-005
-0.00015470368
-4.8157124e-005
0.00012290808
7.9958249e-005
3.3692435e-005
-1.6610328e-005
-8.9676002e-005
-6.6243775e-006
5.2156916e-005
-3.4162567e-006
-4.7031127e-005
-0.00012742549
-0.00013470739
-1.6130029e-005
-6.722053e-005
-0.00019521234
-0.0001174946
5.4241971e-006
-7.2351247e-005
-0.00021683884
-0.00034700851
-0.00021838641
-0.00024874862
-6.0008542e-005
6.5945343e-005
-2.2307164e-005
-0.00019126079
-0.00028005269
-0.00012453688
-4.9945259e-005
-0.00015109703
-5.7987396e-005
0.00010863548
7.3472262e-005
2.7366293e-005
-1.2804824e-005
-8.0258043e-005
2.4754305e-005
5.3183877e-005
-2.4510266e-005
-5.2530816e-005
-0.00013101992
-0.00015685901
-5.0643043e-005
-8.9035809e-005
-0.00020529352
-0.00012134003
-1.3973028e-005
-0.00010272817
-0.00022574502
-0.00028527091
-0.00020085751
-0.00018631956
-8.3891414e-005
4.2628967e-005
-2.8040036e-005
-0.00018942455
-0.00027456988
-0.00013438433
-7.5978635e-005
-0.00015796654
-7.2024098e-005
9.3266382e-005
6.8547024e-005
2.1530949e-005
-1.1409732e-005
-7.730181e-005
3.5769267e-005
5.8347753e-005
-3.8142262e-005
-6.2497161e-005
-0.00013040728
-0.0001698538
-7.8882362e-005
-0.00010759778
-0.000210358
-0.00013847231
-3.8090222e-005
-0.00013314357
-0.00023568361
-0.0002391917
-0.00018958197
-0.00013645522
-8.9468608e-005
2.0154654e-005
-2.7764175e-005
-0.00018331838
-0.00026135826
-0.00014988062
-0.00011592164
-0.00017500349
-8.9461254e-005
7.6446722e-005
6.5652017e-005
1.8867848e-005
-9.8717247e-006
-7.5979117e-005
3.1450132e-005
5.5831203e-005
-4.2102604e-005
-5.9685794e-005
-0.00011835279
-0.00017387268
-9.9984782e-005
-0.00012672337
-0.00021066963
-0.00015395462
-5.7729048e-005
-0.00015962201
-0.00023525557
-0.00021419279
-0.00017253682
-0.00011459239
-8.5895289e-005
-2.95456e-006
-3.0638822e-005
-0.00018345951
-0.0002460909
-0.00016462354
-0.00015437217
-0.00019785347
-0.00010969118
5.986464e-005
5.7524437e-005
9.5305959e-006
-1.0902466e-005
-7.4220124e-005
1.6280437e-005
5.6144422e-005
-2.5554807e-005
-4.6279353e-005
-0.00010342555
-0.0001713934
-0.00011374402
-0.00014625694
-0.00021501167
-0.00016052002
-7.0342659e-005
-0.0001848255
-0.00025223952
-0.00020093607
-0.00016640743
-0.00011199203
-8.3915696e-005
-2.7690218e-005
-5.6865199e-005
-0.00018233351
-0.00023456598
-0.0001974401
-0.00018728272
-0.00021379065
-0.00013045048
4.5904309e-005
4.5627652e-005
-8.0564328e-006
-1.8432303e-005
-7.600387e-005
-8.8933733e-007
5.5998031e-005
-8.3975692e-006
-3.1411029e-005
-8.6949511e-005
-0.00015598245
-0.00012219892
-0.00016318717
-0.00021750313
-0.0001700184
-8.8635041e-005
-0.00019784162
-0.00025213636
-0.00019488018
-0.00016720396
-0.00011957545
-8.7461362e-005
-4.1072806e-005
-6.3988368e-005
-0.0001742984
-0.00024054936
-0.00023161502
-0.00021485102
-0.00022236266
-0.00015327693
2.7528358e-005
2.7581936e-005
-3.1440835e-005
-3.9301789e-005
-8.3744265e-005
-2.3329043e-005
5.1402531e-005
6.658093e-006
-2.2098288e-005
-7.8265458e-005
-0.00014344375
-0.00013524891
-0.00016916611
-0.00020989412
-0.00017002671
-0.0001074588
-0.00018998405
-0.0002320974
-0.00018445255
-0.00016785822
-0.00012036774
-8.0623641e-005
-4.6557455e-005
-4.155904e-005
-0.00015578801
-0.00024756057
-0.00026524878
-0.00024609322
-0.00023218403
-0.00019922135
7.324378e-007
1.4140095e-006
-5.6180374e-005
-6.2165153e-005
-9.4328408e-005
-5.1352287e-005
3.5479203e-005
1.2453387e-005
-1.4278975e-005
-7.0807006e-005
-0.00012718575
-0.00014022703
-0.00017306544
-0.0002043062
-0.00017374049
-0.00011782301
-0.00017754071
-0.00021134565
-0.00017433589
-0.0001623973
-0.00012119428
-8.9512935e-005
-4.9604885e-005
-2.9890972e-005
-0.00014585894
-0.0002355757
-0.00027694244
-0.0002772085
-0.00021256793
-0.00022084999
-5.4240721e-005
-4.2285101e-005
-8.0558716e-005
-8.3482844e-005
-9.2456755e-005
-5.5592991e-005
1.5759465e-005
-1.6994113e-005
-4.3719461e-005
-7.646333e-005
-0.00011985217
-0.00013729272
-0.00016567888
-0.00020852946
-0.00019052422
-0.00012899414
-0.00017632884
-0.00019951233
-0.00016350946
-0.0001592138
-0.00012569094
-9.4381293e-005
-5.4742361e-005
-3.6419769e-005
-0.00014240418
-0.00020473583
-0.00024838164
-0.00029267292
-0.00020133164
-0.00019128197
-8.9933684e-005
-6.1867697e-005
-8.1742519e-005
-7.9630384e-005
-8.9228955e-005
-6.7000326e-005
-1.7380154e-005
-7.8705649e-005
-0.00010792754
-8.7500079e-005
-0.00010986369
-0.00012696034
-0.00013139638
-0.00019996256
-0.00020964585
-0.00013578269
-0.00017846182
-0.0001924635
-0.00015470584
-0.00015278294
-0.00012900304
-0.00010062052
-6.6176551e-005
-4.0619459e-005
-0.0001493262
-0.00018018297
-0.00020693865
-0.00028959694
-0.00022221949
-0.0001588969
-8.8733382e-005
-6.6867547e-005
-9.0398e-005
-7.3879228e-005
-8.9544091e-005
-9.593976e-005
-6.8827675e-005
-0.00013183322
-0.00015578978
-0.00011523502
-0.00010802624
-0.00011817735
-0.00010173276
-0.00016392896
-0.00021039855
-0.00013861892
-0.00017529377
-0.00018168145
-0.00014766682
-0.0001391612
-0.00012211201
-0.00010187368
-7.3984346e-005
-4.5614025e-005
-0.00014465923
-0.00015299925
-0.00015109385
-0.0002299474
-0.00020051082
-0.00012957195
-5.3901283e-005
-5.5017419e-005
-8.7229206e-005
-7.8852248e-005
-0.00011739799
-0.00014129851
-9.9493547e-005
-0.00014182254
-0.00015404691
-0.00012726709
-0.00010764747
-0.00011185809
-8.3516519e-005
-0.00011768788
-0.00018405533
-0.00012999284
-0.00016566801
-0.00017097986
-0.00014136046
-0.00013311823
-0.00012320034
-0.00011525335
-9.5449925e-005
-6.5392444e-005
-0.00013569019
-0.00012753333
-0.00012051886
-0.00021478486
-0.00020080822
-0.0001136899
-2.6816526e-005
-3.1708679e-005
-8.1607465e-005
-9.4761229e-005
-0.00012327083
-0.00013585004
-7.7617541e-005
-9.329617e-005
-0.00010951254
-0.00010910561
-9.8242247e-005
-9.6982232e-005
-8.1335191e-005
-8.5972024e-005
-0.00014698239
-0.00011888257
-0.00016049413
-0.0001686467
-0.00013330206
-0.00013033354
-0.00013358835
-0.00012198877
-0.00010678676
-7.4424061e-005
-0.00011171371
-0.00011450205
-8.9438193e-005
-0.00018296901
-0.0002028499
-9.475187e-005
-6.9251507e-007
-1.5903131e-005
-8.4257778e-005
-0.00011280277
-0.0001311063
-0.00013008867
-6.6488682e-005
-6.0482381e-005
-7.939722e-005
-9.0043139e-005
-9.6375938e-005
-9.203362e-005
-8.0218636e-005
-7.0977175e-005
-0.00011159274
-0.00011438805
-0.00015947971
-0.00016897949
-0.00011615892
-0.00010290273
-0.0001392606
-0.0001378425
-0.00010935082
-8.6988325e-005
-0.00010808476
-0.00010125576
-7.5978832e-005
-0.00014216562
-0.00019174689
-9.8014539e-005
5.3734615e-006
-1.1423833e-005
-8.8385185e-005
-0.00013591584
-0.00014333628
-0.0001190026
-5.5617283e-005
-4.4118095e-005
-7.459436e-005
-8.3678924e-005
-8.5475971e-005
-9.5985276e-005
-0.00010407987
-8.8333671e-005
-0.00010812627
-0.00012307515
-0.00014074945
-0.0001825437
-0.00013391554
-7.8572336e-005
-0.00011470128
-0.00015139839
-0.00012725719
-0.00011257255
-0.00011559864
-8.7748349e-005
-6.8171505e-005
-0.00012139931
-0.00016671849
-7.371543e-005
6.8538157e-006
-2.1382224e-005
-9.6197452e-005
-0.00016101714
-0.00015152094
-8.6502153e-005
-3.2089722e-005
-3.9850574e-005
-7.8230663e-005
-8.8460926e-005
-7.8452192e-005
-8.6168914e-005
-0.00011857873
-0.00011867668
-0.00011894372
-0.00010544058
-0.00011481743
-0.00015565867
-0.00014862212
-7.495226e-005
-0.00011216668
-0.00017157276
-0.00014685895
-0.00013822414
-9.8027719e-005