/*--------------------------------*- C++ -*----------------------------------*\
| =========                 |                                                 |
| \\      /  F ield         | OpenFOAM: The Open Source CFD Toolbox           |
|  \\    /   O peration     | Version:  5.x                                   |
|   \\  /    A nd           | Web:      www.OpenFOAM.org                      |
|    \\/     M anipulation  |                                                 |
\*---------------------------------------------------------------------------*/
/*   Windows 32 and 64 bit porting by blueCAPE: http://www.bluecape.com.pt   *\
|  Based on Windows porting (2.0.x v4) by Symscape: http://www.symscape.com   |
\*---------------------------------------------------------------------------*/
FoamFile
{
    version     2.0;
    format      ascii;
    class       volScalarField;
    location    "0.00000000";
    object      pMean;
}
// * * * * * * * * * * * * * * * * * * * * * * * * * * * * * * * * * * * * * //

dimensions      [0 2 -2 0 0 0 0];

internalField   nonuniform List<scalar> 
51000
(
2.5099152e-005
2.5377306e-005
2.630834e-005
2.7665705e-005
2.8457192e-005
2.8146817e-005
2.7189563e-005
2.6633858e-005
2.6390801e-005
2.5815337e-005
2.5450339e-005
2.540016e-005
2.527423e-005
2.4800363e-005
2.4366506e-005
2.4860647e-005
2.570977e-005
2.6117182e-005
2.63961e-005
2.7025216e-005
2.7396178e-005
2.722555e-005
2.6798986e-005
2.6330115e-005
2.6152036e-005
2.6049037e-005
2.5873187e-005
2.5727669e-005
2.5099137e-005
2.4872991e-005
2.4830961e-005
2.5114586e-005
2.6048915e-005
2.73988e-005
2.8178509e-005
2.7876246e-005
2.6935615e-005
2.6394704e-005
2.6167493e-005
2.5602406e-005
2.5244555e-005
2.5193916e-005
2.5056985e-005
2.4568479e-005
2.4120476e-005
2.4610066e-005
2.5462982e-005
2.5878648e-005
2.6166848e-005
2.6796006e-005
2.7154678e-005
2.6972951e-005
2.6535943e-005
2.6053885e-005
2.5861703e-005
2.5744049e-005
2.5563298e-005
2.5424223e-005
2.4803684e-005
2.4586911e-005
2.3303297e-005
2.3605984e-005
2.4574864e-005
2.5961734e-005
2.6741945e-005
2.6443857e-005
2.552133e-005
2.5004692e-005
2.4805006e-005
2.4246089e-005
2.3905705e-005
2.3899362e-005
2.3771083e-005
2.3245027e-005
2.2750603e-005
2.3220755e-005
2.4068745e-005
2.4476221e-005
2.4760404e-005
2.5395816e-005
2.5744154e-005
2.5547678e-005
2.5097896e-005
2.4595907e-005
2.4387431e-005
2.4248015e-005
2.4049427e-005
2.3906306e-005
2.327136e-005
2.304224e-005
1.9937764e-005
2.028295e-005
2.131647e-005
2.2782827e-005
2.3547265e-005
2.3219994e-005
2.2306934e-005
2.1809933e-005
2.1613908e-005
2.1033835e-005
2.0761823e-005
2.0895083e-005
2.0816517e-005
2.0257407e-005
1.9691592e-005
2.0083825e-005
2.0857574e-005
2.1179214e-005
2.1400729e-005
2.2053453e-005
2.2455921e-005
2.2297818e-005
2.1859639e-005
2.1375349e-005
2.1203401e-005
2.1064966e-005
2.0831946e-005
2.0646848e-005
1.9945731e-005
1.9654627e-005
1.5010974e-005
1.5419939e-005
1.6523776e-005
1.8058139e-005
1.8731719e-005
1.8277887e-005
1.7299323e-005
1.6777303e-005
1.6555302e-005
1.5975592e-005
1.5877133e-005
1.6231395e-005
1.6249172e-005
1.5666859e-005
1.4969076e-005
1.5188845e-005
1.5814862e-005
1.600754e-005
1.6158731e-005
1.6862567e-005
1.7401707e-005
1.7368529e-005
1.7006468e-005
1.6609892e-005
1.6529067e-005
1.6419918e-005
1.6158601e-005
1.5883438e-005
1.505035e-005
1.467538e-005
9.0040491e-006
9.5057856e-006
1.064268e-005
1.2134893e-005
1.2609352e-005
1.1919064e-005
1.0791162e-005
1.0191839e-005
9.9796162e-006
9.5372662e-006
9.6601307e-006
1.0192785e-005
1.0284144e-005
9.6512426e-006
8.7860065e-006
8.7817445e-006
9.2794286e-006
9.4626421e-006
9.6077272e-006
1.0357005e-005
1.1064518e-005
1.1224896e-005
1.1012019e-005
1.0751191e-005
1.0755708e-005
1.0650043e-005
1.0354367e-005
9.9889834e-006
9.0232866e-006
8.5668904e-006
2.4678583e-006
3.0781606e-006
4.1709681e-006
5.4518454e-006
5.5886336e-006
4.5922595e-006
3.2884497e-006
2.6739423e-006
2.6042917e-006
2.3609411e-006
2.5734037e-006
3.1650631e-006
3.3258582e-006
2.7641964e-006
1.8737384e-006
1.649641e-006
2.0350588e-006
2.3023429e-006
2.4641802e-006
3.1953334e-006
4.0017088e-006
4.334628e-006
4.3030896e-006
4.2115175e-006
4.3462348e-006
4.2107892e-006
3.8456379e-006
3.4657827e-006
2.4404665e-006
1.9083836e-006
-4.2085252e-006
-3.4931045e-006
-2.5606581e-006
-1.6864482e-006
-2.0257466e-006
-3.2898334e-006
-4.6058442e-006
-5.0793725e-006
-4.9450996e-006
-5.1278467e-006
-4.9797766e-006
-4.3852525e-006
-4.0743517e-006
-4.3615069e-006
-5.1394513e-006
-5.558106e-006
-5.317195e-006
-5.0502113e-006
-4.8215451e-006
-4.0406721e-006
-3.1839303e-006
-2.7709056e-006
-2.7081439e-006
-2.6823745e-006
-2.4381778e-006
-2.5871418e-006
-2.9145166e-006
-3.2182525e-006
-4.2862904e-006
-4.8732364e-006
-1.0527836e-005
-9.8640832e-006
-9.1625015e-006
-8.7112538e-006
-9.4518469e-006
-1.078151e-005
-1.1892185e-005
-1.2213084e-005
-1.2159541e-005
-1.242639e-005
-1.2281261e-005
-1.1661282e-005
-1.1220615e-005
-1.131765e-005
-1.2051002e-005
-1.2522749e-005
-1.2389101e-005
-1.2295877e-005
-1.2034518e-005
-1.1039653e-005
-9.9274556e-006
-9.4201073e-006
-9.4096897e-006
-9.4331014e-006
-9.2619191e-006
-9.3099642e-006
-9.3338241e-006
-9.5000207e-006
-1.0577581e-005
-1.1156609e-005
-1.6213672e-005
-1.5725213e-005
-1.512046e-005
-1.4988749e-005
-1.5991194e-005
-1.7218301e-005
-1.8043195e-005
-1.8337952e-005
-1.8577836e-005
-1.8937738e-005
-1.8672766e-005
-1.796273e-005
-1.7527406e-005
-1.7672654e-005
-1.8357325e-005
-1.8779051e-005
-1.8911364e-005
-1.9191656e-005
-1.8964398e-005
-1.7686708e-005
-1.6174043e-005
-1.5482473e-005
-1.5553041e-005
-1.5818156e-005
-1.5791212e-005
-1.5555411e-005
-1.5162432e-005
-1.5145422e-005
-1.6017705e-005
-1.6575242e-005
-2.1046173e-005
-2.0826012e-005
-2.0294632e-005
-2.033173e-005
-2.1385378e-005
-2.2371503e-005
-2.289731e-005
-2.3225061e-005
-2.3784603e-005
-2.4239443e-005
-2.3846861e-005
-2.3002155e-005
-2.2591824e-005
-2.2748398e-005
-2.3311059e-005
-2.3813288e-005
-2.443493e-005
-2.5052095e-005
-2.4722425e-005
-2.315382e-005
-2.1430536e-005
-2.0671256e-005
-2.0887973e-005
-2.1407153e-005
-2.1515413e-005
-2.1067158e-005
-2.0379899e-005
-2.0110797e-005
-2.0567682e-005
-2.1004359e-005
-2.4927445e-005
-2.5044968e-005
-2.4791094e-005
-2.499191e-005
-2.5844287e-005
-2.6478936e-005
-2.6671134e-005
-2.6841829e-005
-2.7508329e-005
-2.8074982e-005
-2.778517e-005
-2.719137e-005
-2.688515e-005
-2.6779742e-005
-2.6985821e-005
-2.7538765e-005
-2.8499021e-005
-2.9170343e-005
-2.8637537e-005
-2.6974583e-005
-2.5217375e-005
-2.4444662e-005
-2.4694597e-005
-2.5392436e-005
-2.5846757e-005
-2.5507165e-005
-2.4779691e-005
-2.4341025e-005
-2.4401914e-005
-2.4619403e-005
-2.8009765e-005
-2.825595e-005
-2.8190449e-005
-2.8442904e-005
-2.911778e-005
-2.9617537e-005
-2.9585429e-005
-2.9343554e-005
-2.9627687e-005
-2.9995367e-005
-2.9917291e-005
-2.9954245e-005
-3.0108611e-005
-2.9837656e-005
-2.9744608e-005
-3.0292907e-005
-3.1321138e-005
-3.189199e-005
-3.1290205e-005
-2.9680537e-005
-2.7848027e-005
-2.6909645e-005
-2.6885407e-005
-2.7475322e-005
-2.8199825e-005
-2.8221379e-005
-2.7781801e-005
-2.7525418e-005
-2.758528e-005
-2.7727339e-005
-3.0058567e-005
-3.0364689e-005
-3.0333662e-005
-3.0506688e-005
-3.1130626e-005
-3.1644211e-005
-3.150014e-005
-3.0979305e-005
-3.0946975e-005
-3.1101329e-005
-3.0992754e-005
-3.1251037e-005
-3.1763217e-005
-3.1720328e-005
-3.1685649e-005
-3.2208492e-005
-3.3085516e-005
-3.3631381e-005
-3.3058012e-005
-3.1379881e-005
-2.9508567e-005
-2.8504231e-005
-2.8306629e-005
-2.8580475e-005
-2.919056e-005
-2.9396183e-005
-2.9251421e-005
-2.9380006e-005
-2.9716863e-005
-2.9849484e-005
-3.1181221e-005
-3.1532341e-005
-3.1480027e-005
-3.1510232e-005
-3.2104248e-005
-3.2623697e-005
-3.2385668e-005
-3.1758142e-005
-3.1648702e-005
-3.1824205e-005
-3.1897723e-005
-3.2360754e-005
-3.2874481e-005
-3.2750381e-005
-3.2654932e-005
-3.3044275e-005
-3.3604044e-005
-3.4009283e-005
-3.3619869e-005
-3.2199177e-005
-3.0514037e-005
-2.9583203e-005
-2.9339726e-005
-2.9433351e-005
-2.9979674e-005
-3.0361434e-005
-3.0483845e-005
-3.0800036e-005
-3.1132183e-005
-3.1077719e-005
-3.1781516e-005
-3.2212028e-005
-3.218602e-005
-3.2014334e-005
-3.2624045e-005
-3.3329025e-005
-3.3098087e-005
-3.2345034e-005
-3.2135683e-005
-3.2309086e-005
-3.256708e-005
-3.325299e-005
-3.3728528e-005
-3.3276645e-005
-3.2897628e-005
-3.3156888e-005
-3.3490915e-005
-3.3568596e-005
-3.3216547e-005
-3.2192354e-005
-3.1030515e-005
-3.0453106e-005
-3.0293571e-005
-3.0261021e-005
-3.0526707e-005
-3.0913547e-005
-3.1329231e-005
-3.1756485e-005
-3.199023e-005
-3.1801836e-005
-3.1693503e-005
-3.2154694e-005
-3.231782e-005
-3.2191916e-005
-3.269223e-005
-3.3295161e-005
-3.3076552e-005
-3.2506557e-005
-3.2443739e-005
-3.2551169e-005
-3.2595459e-005
-3.3004962e-005
-3.3381217e-005
-3.3121479e-005
-3.2880816e-005
-3.3105558e-005
-3.3210086e-005
-3.300801e-005
-3.2635763e-005
-3.1758674e-005
-3.0924455e-005
-3.0747739e-005
-3.1051174e-005
-3.1319417e-005
-3.1361584e-005
-3.1281515e-005
-3.1407532e-005
-3.1719044e-005
-3.1918567e-005
-3.1765584e-005
-3.106234e-005
-3.1128029e-005
-3.1218547e-005
-3.1219433e-005
-3.1591244e-005
-3.2013869e-005
-3.1938178e-005
-3.1742694e-005
-3.1960511e-005
-3.2082622e-005
-3.1885651e-005
-3.1891191e-005
-3.202646e-005
-3.1983226e-005
-3.211919e-005
-3.2483524e-005
-3.2451141e-005
-3.2078876e-005
-3.1787677e-005
-3.1099094e-005
-3.029002e-005
-3.0076567e-005
-3.048608e-005
-3.1031045e-005
-3.125921e-005
-3.1087644e-005
-3.1037197e-005
-3.126327e-005
-3.1412431e-005
-3.1293324e-005
-3.0739765e-005
-3.0337773e-005
-2.9920546e-005
-2.9537121e-005
-2.9782726e-005
-3.0426508e-005
-3.0639083e-005
-3.0499149e-005
-3.0635059e-005
-3.080025e-005
-3.0781337e-005
-3.0889312e-005
-3.0966156e-005
-3.0792204e-005
-3.082387e-005
-3.1141892e-005
-3.1069782e-005
-3.0607497e-005
-3.0238175e-005
-2.9682709e-005
-2.9036329e-005
-2.8863158e-005
-2.9213913e-005
-2.9686644e-005
-2.9889507e-005
-2.9863034e-005
-3.0193648e-005
-3.0866319e-005
-3.1282221e-005
-3.118695e-005
-2.982349e-005
-2.9071414e-005
-2.8291541e-005
-2.7624047e-005
-2.7766579e-005
-2.862246e-005
-2.9115507e-005
-2.8780981e-005
-2.8446656e-005
-2.8460314e-005
-2.8573384e-005
-2.8813389e-005
-2.9005768e-005
-2.8934141e-005
-2.8939152e-005
-2.9019328e-005
-2.8679833e-005
-2.8155895e-005
-2.7851033e-005
-2.7419895e-005
-2.6966548e-005
-2.690339e-005
-2.7290552e-005
-2.7758613e-005
-2.7894199e-005
-2.7890514e-005
-2.8348674e-005
-2.9339524e-005
-3.0222785e-005
-3.0379871e-005
-2.7869115e-005
-2.7224833e-005
-2.6316966e-005
-2.5458463e-005
-2.5313314e-005
-2.5943806e-005
-2.6474253e-005
-2.617243e-005
-2.5628687e-005
-2.5415711e-005
-2.5453058e-005
-2.5730544e-005
-2.5995368e-005
-2.6102637e-005
-2.6323911e-005
-2.6498047e-005
-2.6180629e-005
-2.5725506e-005
-2.5491035e-005
-2.5028894e-005
-2.4498584e-005
-2.4369148e-005
-2.4744781e-005
-2.5188797e-005
-2.5199312e-005
-2.5122427e-005
-2.5508835e-005
-2.6430023e-005
-2.7513658e-005
-2.8077234e-005
-2.5022134e-005
-2.466001e-005
-2.387838e-005
-2.3075518e-005
-2.2805205e-005
-2.2972702e-005
-2.3173898e-005
-2.2912771e-005
-2.2440806e-005
-2.2277908e-005
-2.2338364e-005
-2.2549253e-005
-2.2776896e-005
-2.2938601e-005
-2.3312073e-005
-2.3609718e-005
-2.333521e-005
-2.2917221e-005
-2.272219e-005
-2.2285421e-005
-2.1709867e-005
-2.1493461e-005
-2.1847657e-005
-2.2369297e-005
-2.2491261e-005
-2.244515e-005
-2.2711888e-005
-2.3407725e-005
-2.4329059e-005
-2.4955268e-005
-2.2310716e-005
-2.2085524e-005
-2.1514088e-005
-2.0865427e-005
-2.0618627e-005
-2.0527301e-005
-2.0458133e-005
-2.0283274e-005
-2.0042975e-005
-2.0021975e-005
-2.0036264e-005
-2.0100383e-005
-2.0286957e-005
-2.0442853e-005
-2.0753644e-005
-2.0988133e-005
-2.0626466e-005
-2.0126181e-005
-1.9925397e-005
-1.9608293e-005
-1.919771e-005
-1.904876e-005
-1.9363697e-005
-1.9917931e-005
-2.0263617e-005
-2.0457325e-005
-2.0697455e-005
-2.1170618e-005
-2.1873434e-005
-2.2313327e-005
-2.0046085e-005
-2.0165828e-005
-1.9959319e-005
-1.9474253e-005
-1.9247959e-005
-1.9098123e-005
-1.8840847e-005
-1.8515379e-005
-1.8282603e-005
-1.8245656e-005
-1.8153191e-005
-1.8110193e-005
-1.8233957e-005
-1.8278312e-005
-1.8451776e-005
-1.8754545e-005
-1.8646586e-005
-1.8350596e-005
-1.8236411e-005
-1.8031516e-005
-1.7781663e-005
-1.7620639e-005
-1.7662587e-005
-1.7929738e-005
-1.8206526e-005
-1.8467467e-005
-1.8608678e-005
-1.8800381e-005
-1.937126e-005
-1.9878458e-005
-1.770187e-005
-1.7760538e-005
-1.7641272e-005
-1.7225676e-005
-1.6885497e-005
-1.6607255e-005
-1.6332708e-005
-1.6034531e-005
-1.5844038e-005
-1.5895931e-005
-1.5928853e-005
-1.5962514e-005
-1.6083824e-005
-1.5987582e-005
-1.5876271e-005
-1.597605e-005
-1.5875537e-005
-1.5665092e-005
-1.5632527e-005
-1.5508494e-005
-1.5341884e-005
-1.5271979e-005
-1.5394056e-005
-1.5693789e-005
-1.5953954e-005
-1.6268976e-005
-1.65064e-005
-1.6613794e-005
-1.7060746e-005
-1.7580292e-005
-1.5022252e-005
-1.5203015e-005
-1.5319638e-005
-1.50543e-005
-1.4672528e-005
-1.4315108e-005
-1.4026932e-005
-1.3751056e-005
-1.3466531e-005
-1.3369638e-005
-1.3344344e-005
-1.3298959e-005
-1.3401693e-005
-1.3413851e-005
-1.3305576e-005
-1.3286855e-005
-1.3070806e-005
-1.2781004e-005
-1.2784209e-005
-1.2869742e-005
-1.2959718e-005
-1.3044421e-005
-1.3184549e-005
-1.3456531e-005
-1.3623319e-005
-1.3790535e-005
-1.3993979e-005
-1.4032285e-005
-1.4316523e-005
-1.4820144e-005
-1.1149659e-005
-1.1278843e-005
-1.1514741e-005
-1.1465269e-005
-1.1263032e-005
-1.1005005e-005
-1.0811186e-005
-1.0762341e-005
-1.0710636e-005
-1.074142e-005
-1.0802029e-005
-1.0760342e-005
-1.0914632e-005
-1.1085056e-005
-1.0999535e-005
-1.0959393e-005
-1.0744775e-005
-1.0338316e-005
-1.0224459e-005
-1.0304911e-005
-1.0425751e-005
-1.0544725e-005
-1.0665519e-005
-1.0886952e-005
-1.0969174e-005
-1.0925358e-005
-1.0957333e-005
-1.0865516e-005
-1.0860581e-005
-1.1090409e-005
-8.011064e-006
-8.0070784e-006
-8.1348909e-006
-8.1048088e-006
-7.9966159e-006
-7.8674521e-006
-7.7406903e-006
-7.6978403e-006
-7.6484626e-006
-7.6732487e-006
-7.7566314e-006
-7.7031487e-006
-7.7838563e-006
-7.9996033e-006
-7.9986275e-006
-8.0164731e-006
-7.9813113e-006
-7.7436675e-006
-7.685585e-006
-7.798517e-006
-7.9235468e-006
-8.0297412e-006
-8.1326794e-006
-8.3230365e-006
-8.3881795e-006
-8.2766589e-006
-8.2563565e-006
-8.1323112e-006
-7.9452543e-006
-8.0100264e-006
-5.2289336e-006
-5.2091258e-006
-5.3320065e-006
-5.3381236e-006
-5.2043207e-006
-5.0279412e-006
-4.8302974e-006
-4.7321371e-006
-4.6744904e-006
-4.6396839e-006
-4.6389396e-006
-4.4903652e-006
-4.4066043e-006
-4.5680784e-006
-4.6465414e-006
-4.7379456e-006
-4.8612748e-006
-4.7639864e-006
-4.7099242e-006
-4.8051035e-006
-4.9225032e-006
-5.028753e-006
-5.1014487e-006
-5.2161328e-006
-5.2730055e-006
-5.2062281e-006
-5.2414089e-006
-5.2375624e-006
-5.0975426e-006
-5.1692776e-006
-1.8613465e-006
-1.8467143e-006
-2.0122206e-006
-2.1247442e-006
-2.0532671e-006
-1.869466e-006
-1.6767761e-006
-1.6375085e-006
-1.6763403e-006
-1.7165639e-006
-1.7444718e-006
-1.6567351e-006
-1.5590336e-006
-1.5727175e-006
-1.5194472e-006
-1.476546e-006
-1.4920003e-006
-1.3631038e-006
-1.2407409e-006
-1.2149068e-006
-1.2515714e-006
-1.3427112e-006
-1.4109723e-006
-1.5163861e-006
-1.6243784e-006
-1.6647598e-006
-1.7556651e-006
-1.841128e-006
-1.8038021e-006
-1.8392016e-006
1.3218175e-006
1.3112075e-006
1.2337094e-006
1.2108939e-006
1.2853401e-006
1.4468595e-006
1.6378291e-006
1.6821966e-006
1.6304272e-006
1.5658674e-006
1.5275152e-006
1.5576406e-006
1.5837906e-006
1.5408989e-006
1.5187757e-006
1.5230562e-006
1.5279479e-006
1.6153987e-006
1.6898455e-006
1.7122986e-006
1.683985e-006
1.6039661e-006
1.5690195e-006
1.544076e-006
1.5438856e-006
1.5548666e-006
1.4893181e-006
1.4069997e-006
1.4015926e-006
1.3677084e-006
4.0886829e-006
4.0463219e-006
3.9926307e-006
3.9694746e-006
3.9926722e-006
4.0610528e-006
4.183778e-006
4.2261704e-006
4.1946374e-006
4.1189477e-006
4.02416e-006
4.0093898e-006
4.057794e-006
4.0445661e-006
3.9914092e-006
3.9990442e-006
4.0388505e-006
4.1306545e-006
4.2347189e-006
4.323751e-006
4.3849384e-006
4.3727598e-006
4.3553177e-006
4.3230948e-006
4.3271652e-006
4.3673258e-006
4.3160227e-006
4.2050607e-006
4.1726892e-006
4.1572781e-006
6.7495813e-006
6.7027327e-006
6.6513974e-006
6.5980906e-006
6.5780598e-006
6.6067681e-006
6.6987975e-006
6.7545549e-006
6.7773656e-006
6.7627377e-006
6.7110752e-006
6.7393371e-006
6.8306216e-006
6.8537102e-006
6.811125e-006
6.8078982e-006
6.826894e-006
6.863371e-006
6.913548e-006
6.9507818e-006
6.9577306e-006
6.9021401e-006
6.8546658e-006
6.8091995e-006
6.8090602e-006
6.86739e-006
6.853578e-006
6.7826936e-006
6.776543e-006
6.7966738e-006
8.4337067e-006
8.3953059e-006
8.3388602e-006
8.3059038e-006
8.2897282e-006
8.2944518e-006
8.3386458e-006
8.3541501e-006
8.3796381e-006
8.4045748e-006
8.3737024e-006
8.3736837e-006
8.4249454e-006
8.4435844e-006
8.4347766e-006
8.4416822e-006
8.4470298e-006
8.4540224e-006
8.4525478e-006
8.4424611e-006
8.4192548e-006
8.3734151e-006
8.3665719e-006
8.3601127e-006
8.3626034e-006
8.4221215e-006
8.4548976e-006
8.4394362e-006
8.44411e-006
8.4549447e-006
2.8296353e-005
2.7919448e-005
2.7745644e-005
2.8113061e-005
2.8805135e-005
2.8953919e-005
2.8483251e-005
2.8383324e-005
2.836333e-005
2.8000639e-005
2.7492395e-005
2.6735433e-005
2.5795569e-005
2.4586162e-005
2.3318765e-005
2.2895326e-005
2.3288411e-005
2.4087777e-005
2.5279551e-005
2.6658113e-005
2.8275681e-005
2.9539725e-005
2.9861273e-005
3.008192e-005
3.0488383e-005
3.082625e-005
3.0900385e-005
3.0404962e-005
2.9465096e-005
2.8713583e-005
2.7994867e-005
2.760625e-005
2.7435192e-005
2.7818876e-005
2.8516491e-005
2.8666101e-005
2.8199258e-005
2.8107161e-005
2.8103345e-005
2.7764723e-005
2.7270636e-005
2.6515654e-005
2.5586499e-005
2.4399765e-005
2.3143397e-005
2.2720779e-005
2.310588e-005
2.3886936e-005
2.505403e-005
2.641766e-005
2.802043e-005
2.9270702e-005
2.9589238e-005
2.9806111e-005
3.0192647e-005
3.0512297e-005
3.0594799e-005
3.0112899e-005
2.9168882e-005
2.8412407e-005
2.6568537e-005
2.6175591e-005
2.6014293e-005
2.6430505e-005
2.7135322e-005
2.7280179e-005
2.6829174e-005
2.6756101e-005
2.6756871e-005
2.6430142e-005
2.5946927e-005
2.5178159e-005
2.4229526e-005
2.3059005e-005
2.180932e-005
2.1369915e-005
2.1748708e-005
2.2533577e-005
2.3696293e-005
2.5070647e-005
2.6696947e-005
2.7939376e-005
2.8234928e-005
2.8438638e-005
2.8794777e-005
2.9069269e-005
2.9152085e-005
2.870426e-005
2.7771471e-005
2.6992466e-005
2.3333202e-005
2.2956222e-005
2.2786313e-005
2.3208979e-005
2.3881434e-005
2.3998652e-005
2.3574477e-005
2.3539276e-005
2.3516627e-005
2.3162399e-005
2.2715146e-005
2.1976831e-005
2.1041464e-005
1.9963468e-005
1.8793246e-005
1.8358215e-005
1.8749075e-005
1.9539817e-005
2.0634543e-005
2.1956282e-005
2.3566203e-005
2.4748885e-005
2.4981697e-005
2.5197583e-005
2.5570284e-005
2.5806476e-005
2.5862422e-005
2.547156e-005
2.4566811e-005
2.3746518e-005
1.8463737e-005
1.8087995e-005
1.7841863e-005
1.8200456e-005
1.8819482e-005
1.8903233e-005
1.8464469e-005
1.83878e-005
1.8293374e-005
1.7898221e-005
1.7527137e-005
1.6924547e-005
1.6109509e-005
1.5188529e-005
1.414053e-005
1.372934e-005
1.4142792e-005
1.4936098e-005
1.5932751e-005
1.7104905e-005
1.8638529e-005
1.9712132e-005
1.9853886e-005
2.0133096e-005
2.0595393e-005
2.0842713e-005
2.0911586e-005
2.0637619e-005
1.9758469e-005
1.8869193e-005
1.2316337e-005
1.1941801e-005
1.1613467e-005
1.1880065e-005
1.2430106e-005
1.2483308e-005
1.1962169e-005
1.1699444e-005
1.1515041e-005
1.1129422e-005
1.0860991e-005
1.0439633e-005
9.7966e-006
9.0315768e-006
8.1158188e-006
7.7645728e-006
8.1982929e-006
9.0463235e-006
9.9938202e-006
1.1013514e-005
1.2481199e-005
1.3411247e-005
1.3460496e-005
1.3796248e-005
1.4321978e-005
1.4550895e-005
1.4687917e-005
1.4578805e-005
1.3690938e-005
1.2687761e-005
5.458456e-006
5.093265e-006
4.7590565e-006
4.9605751e-006
5.4350753e-006
5.4959448e-006
4.9102135e-006
4.4158645e-006
4.1245373e-006
3.7475702e-006
3.488004e-006
3.1333594e-006
2.6271122e-006
2.0883237e-006
1.4180372e-006
1.2054609e-006
1.7062971e-006
2.6534056e-006
3.4972134e-006
4.3484119e-006
5.675998e-006
6.4871538e-006
6.5169582e-006
6.8917743e-006
7.4540642e-006
7.587776e-006
7.6801652e-006
7.6274429e-006
6.7690467e-006
5.7412239e-006
-1.5283011e-006
-1.9247269e-006
-2.3064176e-006
-2.1542908e-006
-1.715845e-006
-1.5417496e-006
-2.0896463e-006
-2.7545736e-006
-3.1492417e-006
-3.5418824e-006
-3.8296339e-006
-4.2610287e-006
-4.7274765e-006
-4.960385e-006
-5.3555733e-006
-5.3897611e-006
-4.7239879e-006
-3.7474721e-006
-3.0703154e-006
-2.4500578e-006
-1.3775538e-006
-6.3147003e-007
-5.7553489e-007
-2.1700285e-007
3.8389591e-007
4.3520729e-007
3.2488473e-007
2.2664098e-007
-4.911003e-007
-1.3356544e-006
-8.0832367e-006
-8.5882314e-006
-9.0379351e-006
-8.9031176e-006
-8.5082088e-006
-8.2147568e-006
-8.6083279e-006
-9.2467963e-006
-9.7137875e-006
-1.015922e-005
-1.0452909e-005
-1.1040716e-005
-1.1597182e-005
-1.1639346e-005
-1.1883688e-005
-1.181673e-005
-1.0960368e-005
-9.9704094e-006
-9.4780297e-006
-9.127813e-006
-8.1325592e-006
-7.3189651e-006
-7.3934779e-006
-7.2648218e-006
-6.653198e-006
-6.580078e-006
-6.8714163e-006
-6.9172153e-006
-7.3248561e-006
-7.8883987e-006
-1.3810709e-005
-1.4455334e-005
-1.4949677e-005
-1.491908e-005
-1.4610386e-005
-1.4243614e-005
-1.4443631e-005
-1.4940296e-005
-1.5518545e-005
-1.6074997e-005
-1.6297826e-005
-1.6916236e-005
-1.7636596e-005
-1.7755303e-005
-1.7932425e-005
-1.7851787e-005
-1.6984559e-005
-1.593117e-005
-1.5424163e-005
-1.510385e-005
-1.3998142e-005
-1.3201077e-005
-1.3636186e-005
-1.387799e-005
-1.3257982e-005
-1.3017042e-005
-1.3351758e-005
-1.3332971e-005
-1.3326932e-005
-1.356136e-005
-1.8556226e-005
-1.9316851e-005
-1.9918565e-005
-2.0076733e-005
-1.9888964e-005
-1.9504106e-005
-1.9510089e-005
-1.9957658e-005
-2.0728552e-005
-2.1347447e-005
-2.1420588e-005
-2.1863853e-005
-2.2620978e-005
-2.2876573e-005
-2.3036265e-005
-2.3007244e-005
-2.2368107e-005
-2.1223444e-005
-2.0318609e-005
-1.9662587e-005
-1.8504525e-005
-1.790575e-005
-1.8714448e-005
-1.9396201e-005
-1.9010071e-005
-1.8661066e-005
-1.891654e-005
-1.8867663e-005
-1.8458113e-005
-1.8294739e-005
-2.2359725e-005
-2.3169163e-005
-2.3928891e-005
-2.4338589e-005
-2.43447e-005
-2.3979902e-005
-2.3834832e-005
-2.4167142e-005
-2.4787822e-005
-2.5284182e-005
-2.5403548e-005
-2.586148e-005
-2.6580484e-005
-2.6885091e-005
-2.7074108e-005
-2.7127582e-005
-2.6708198e-005
-2.5570713e-005
-2.4302373e-005
-2.3212749e-005
-2.1941573e-005
-2.1452166e-005
-2.2329929e-005
-2.3332703e-005
-2.3252887e-005
-2.2941726e-005
-2.3297218e-005
-2.34591e-005
-2.2891401e-005
-2.2279496e-005
-2.5613338e-005
-2.6231443e-005
-2.6900281e-005
-2.7498729e-005
-2.778685e-005
-2.7391479e-005
-2.7043821e-005
-2.7156844e-005
-2.7504474e-005
-2.7944026e-005
-2.8338531e-005
-2.8899784e-005
-2.9569716e-005
-2.9873317e-005
-3.0044198e-005
-3.012966e-005
-2.9938745e-005
-2.9066328e-005
-2.7733761e-005
-2.6254286e-005
-2.4829756e-005
-2.4401893e-005
-2.5114395e-005
-2.5951007e-005
-2.5803845e-005
-2.5466613e-005
-2.6115754e-005
-2.6836122e-005
-2.6531696e-005
-2.5765383e-005
-2.8626867e-005
-2.891861e-005
-2.9278424e-005
-2.984397e-005
-3.0246135e-005
-2.9745067e-005
-2.9056832e-005
-2.9021219e-005
-2.9538053e-005
-3.0099779e-005
-3.0467023e-005
-3.0817961e-005
-3.1303951e-005
-3.1595465e-005
-3.1753978e-005
-3.1902472e-005
-3.1964746e-005
-3.1368794e-005
-3.0173451e-005
-2.8699123e-005
-2.7327058e-005
-2.6916118e-005
-2.7444027e-005
-2.7918369e-005
-2.7528398e-005
-2.7071357e-005
-2.7773091e-005
-2.8951937e-005
-2.9184553e-005
-2.876062e-005
-3.0829203e-005
-3.1067898e-005
-3.1302534e-005
-3.1746233e-005
-3.2081362e-005
-3.1492294e-005
-3.0469857e-005
-3.0174328e-005
-3.0813576e-005
-3.1413399e-005
-3.1557533e-005
-3.1728476e-005
-3.2105039e-005
-3.2361674e-005
-3.2594973e-005
-3.2853272e-005
-3.2801304e-005
-3.2123173e-005
-3.134615e-005
-3.0462773e-005
-2.9354647e-005
-2.8865039e-005
-2.9108004e-005
-2.9259153e-005
-2.8711061e-005
-2.8155706e-005
-2.8770485e-005
-3.0182964e-005
-3.0846694e-005
-3.0781187e-005
-3.189093e-005
-3.2219749e-005
-3.250768e-005
-3.2814305e-005
-3.3018545e-005
-3.2443533e-005
-3.1367376e-005
-3.0786771e-005
-3.1007452e-005
-3.1318155e-005
-3.1434624e-005
-3.1788441e-005
-3.23137e-005
-3.2568177e-005
-3.2814336e-005
-3.312439e-005
-3.2842705e-005
-3.1961431e-005
-3.1473978e-005
-3.1078316e-005
-3.0356467e-005
-2.9994572e-005
-3.0059379e-005
-3.0026652e-005
-2.9507692e-005
-2.8952893e-005
-2.9354091e-005
-3.0651923e-005
-3.1504894e-005
-3.1709039e-005
-3.2133162e-005
-3.2278052e-005
-3.2394911e-005
-3.252253e-005
-3.2643803e-005
-3.2348438e-005
-3.170655e-005
-3.1225041e-005
-3.1021768e-005
-3.083853e-005
-3.0814076e-005
-3.1278728e-005
-3.1815981e-005
-3.1945766e-005
-3.2020474e-005
-3.2230164e-005
-3.1944435e-005
-3.1129602e-005
-3.0823575e-005
-3.0705132e-005
-3.0319271e-005
-3.0234097e-005
-3.0396802e-005
-3.0467376e-005
-3.038997e-005
-3.0218378e-005
-3.0345293e-005
-3.0938765e-005
-3.1496383e-005
-3.1902051e-005
-3.1950634e-005
-3.1766299e-005
-3.1417577e-005
-3.1155128e-005
-3.1116221e-005
-3.1162496e-005
-3.1161273e-005
-3.0994417e-005
-3.0745631e-005
-3.0354754e-005
-3.0154532e-005
-3.0480997e-005
-3.0717176e-005
-3.0534014e-005
-3.0477737e-005
-3.0673801e-005
-3.0488488e-005
-2.9849534e-005
-2.9681216e-005
-2.9611091e-005
-2.9236492e-005
-2.9205499e-005
-2.9528315e-005
-2.9878418e-005
-3.0173953e-005
-3.0390694e-005
-3.0709003e-005
-3.1152894e-005
-3.1430918e-005
-3.1754027e-005
-3.0890457e-005
-3.0757398e-005
-3.0351032e-005
-2.9911627e-005
-2.9735448e-005
-2.9883408e-005
-2.9993849e-005
-2.9702067e-005
-2.9403426e-005
-2.9141852e-005
-2.9022037e-005
-2.9350434e-005
-2.9472229e-005
-2.9102309e-005
-2.8952974e-005
-2.920858e-005
-2.9087252e-005
-2.8469642e-005
-2.8246693e-005
-2.8094815e-005
-2.7651072e-005
-2.7578024e-005
-2.8108938e-005
-2.8926238e-005
-2.9594867e-005
-2.9973344e-005
-3.0386833e-005
-3.0853977e-005
-3.0874323e-005
-3.0808374e-005
-2.9044809e-005
-2.8913445e-005
-2.8542348e-005
-2.8135974e-005
-2.8104918e-005
-2.8354808e-005
-2.8410957e-005
-2.7921964e-005
-2.7429157e-005
-2.7239525e-005
-2.729553e-005
-2.7699696e-005
-2.780959e-005
-2.7314266e-005
-2.6965467e-005
-2.7063236e-005
-2.6994164e-005
-2.6633632e-005
-2.6509267e-005
-2.6266216e-005
-2.5743166e-005
-2.5619789e-005
-2.6273924e-005
-2.7424992e-005
-2.8512648e-005
-2.9242321e-005
-2.9702761e-005
-2.9972078e-005
-2.9722045e-005
-2.9249926e-005
-2.6652308e-005
-2.6548889e-005
-2.6142725e-005
-2.5634154e-005
-2.5544212e-005
-2.5797659e-005
-2.6027072e-005
-2.5848148e-005
-2.5510584e-005
-2.5363012e-005
-2.537838e-005
-2.5627117e-005
-2.5615659e-005
-2.5163746e-005
-2.4915844e-005
-2.5003894e-005
-2.4997058e-005
-2.4816527e-005
-2.4690528e-005
-2.4269969e-005
-2.3585097e-005
-2.3223016e-005
-2.3645399e-005
-2.4688869e-005
-2.5730033e-005
-2.6640311e-005
-2.7392362e-005
-2.7818956e-005
-2.7602503e-005
-2.6983331e-005
-2.383508e-005
-2.3611664e-005
-2.3085589e-005
-2.2492308e-005
-2.2306781e-005
-2.2413957e-005
-2.2678111e-005
-2.2815431e-005
-2.2771512e-005
-2.2698654e-005
-2.246304e-005
-2.2297364e-005
-2.2200234e-005
-2.203193e-005
-2.216811e-005
-2.2562109e-005
-2.2764915e-005
-2.2832779e-005
-2.2873545e-005
-2.2522806e-005
-2.1804195e-005
-2.1102383e-005
-2.0970228e-005
-2.1533519e-005
-2.2297997e-005
-2.3120785e-005
-2.3890014e-005
-2.4440427e-005
-2.4548054e-005
-2.4176954e-005
-2.1112602e-005
-2.0638499e-005
-1.9885789e-005
-1.9198578e-005
-1.9029053e-005
-1.9052569e-005
-1.9099395e-005
-1.9118631e-005
-1.9081788e-005
-1.9083915e-005
-1.8853927e-005
-1.8682034e-005
-1.888232e-005
-1.9101225e-005
-1.9363209e-005
-1.9664746e-005
-1.9736118e-005
-1.9866971e-005
-2.017278e-005
-2.0181636e-005
-1.983405e-005
-1.9301001e-005
-1.893209e-005
-1.9042058e-005
-1.949002e-005
-2.0214554e-005
-2.0878147e-005
-2.1347216e-005
-2.1641078e-005
-2.1508913e-005
-1.8432719e-005
-1.8108249e-005
-1.756909e-005
-1.6997837e-005
-1.6770907e-005
-1.6584726e-005
-1.6299844e-005
-1.6078136e-005
-1.5986015e-005
-1.609845e-005
-1.6064668e-005
-1.6027549e-005
-1.6393832e-005
-1.6745986e-005
-1.6898164e-005
-1.697533e-005
-1.6882578e-005
-1.6964025e-005
-1.7347774e-005
-1.7586208e-005
-1.7636176e-005
-1.7548769e-005
-1.7400709e-005
-1.7474255e-005
-1.7724586e-005
-1.8133014e-005
-1.836924e-005
-1.8378362e-005
-1.8571173e-005
-1.8663264e-005
-1.5848807e-005
-1.5816533e-005
-1.5665251e-005
-1.5212365e-005
-1.478331e-005
-1.4468661e-005
-1.4269366e-005
-1.4209025e-005
-1.4247407e-005
-1.4438306e-005
-1.4430448e-005
-1.4228723e-005
-1.4333391e-005
-1.4449846e-005
-1.4313919e-005
-1.4177381e-005
-1.4030874e-005
-1.4081379e-005
-1.4492942e-005
-1.4838649e-005
-1.5034454e-005
-1.5185364e-005
-1.5243191e-005
-1.5323406e-005
-1.5390683e-005
-1.5593015e-005
-1.5747537e-005
-1.5593103e-005
-1.5638094e-005
-1.5869124e-005
-1.3492759e-005
-1.3652379e-005
-1.3780103e-005
-1.3494452e-005
-1.3014966e-005
-1.2631476e-005
-1.245286e-005
-1.2423694e-005
-1.2414237e-005
-1.2510891e-005
-1.2483968e-005
-1.224468e-005
-1.2296077e-005
-1.2385586e-005
-1.2135599e-005
-1.1852118e-005
-1.154468e-005
-1.1393036e-005
-1.1694913e-005
-1.2116302e-005
-1.2426539e-005
-1.2618486e-005
-1.2727148e-005
-1.2910477e-005
-1.2990605e-005
-1.3074976e-005
-1.3208458e-005
-1.3047101e-005
-1.3005261e-005
-1.3324005e-005
-9.9977144e-006
-1.0223396e-005
-1.057357e-005
-1.054595e-005
-1.0227759e-005
-9.9097885e-006
-9.7234938e-006
-9.6289439e-006
-9.4647163e-006
-9.4265124e-006
-9.4696797e-006
-9.3398536e-006
-9.4617177e-006
-9.7632829e-006
-9.7872362e-006
-9.7292742e-006
-9.5061943e-006
-9.2381742e-006
-9.3957227e-006
-9.7921687e-006
-1.0146417e-005
-1.0401129e-005
-1.0579921e-005
-1.0793688e-005
-1.079147e-005
-1.0620521e-005
-1.0517012e-005
-1.0185339e-005
-9.850723e-006
-9.9055769e-006
-7.351231e-006
-7.5025957e-006
-7.7757261e-006
-7.7339911e-006
-7.4432286e-006
-7.1733263e-006
-7.0042699e-006
-6.9119214e-006
-6.7758567e-006
-6.7800911e-006
-6.9436183e-006
-6.8938457e-006
-6.8926041e-006
-7.0933508e-006
-7.1164683e-006
-7.097812e-006
-6.9691869e-006
-6.664131e-006
-6.6303082e-006
-6.8546766e-006
-7.0991545e-006