/*--------------------------------*- C++ -*----------------------------------*\
| =========                 |                                                 |
| \\      /  F ield         | OpenFOAM: The Open Source CFD Toolbox           |
|  \\    /   O peration     | Version:  5.x                                   |
|   \\  /    A nd           | Web:      www.OpenFOAM.org                      |
|    \\/     M anipulation  |                                                 |
\*---------------------------------------------------------------------------*/
/*   Windows 32 and 64 bit porting by blueCAPE: http://www.bluecape.com.pt   *\
|  Based on Windows porting (2.0.x v4) by Symscape: http://www.symscape.com   |
\*---------------------------------------------------------------------------*/
FoamFile
{
    version     2.0;
    format      ascii;
    class       volVectorField;
    location    "0.00000000";
    object      U;
}
// * * * * * * * * * * * * * * * * * * * * * * * * * * * * * * * * * * * * * //

dimensions      [0 1 -1 0 0 0 0];

internalField   nonuniform List<vector> 
51000
(
(0.01906645 -9.4787242e-005 0.00090155508)
(0.021879332 -7.6269014e-005 0.002727427)
(0.024731324 -0.00010544623 0.0049248887)
(0.0232852 -0.00018344275 0.0031167876)
(0.019230011 -0.00018518474 0.00093499358)
(0.017735471 -6.996103e-005 -0.0005710485)
(0.019130634 5.0131993e-005 -0.0028533875)
(0.018899849 -2.7826677e-005 -0.0049051555)
(0.013136021 -0.00015718242 -0.0052336881)
(0.0086535552 -0.00014692914 -0.0039911209)
(0.008064468 -6.09854e-005 -0.0025367984)
(0.0079488828 -7.6956571e-006 -0.00050572153)
(0.0086371574 -3.9683085e-005 0.00057838146)
(0.010783836 -3.0271887e-005 -0.0005887284)
(0.013704061 -5.9244108e-006 -0.0029011475)
(0.017201521 2.5732784e-005 -0.0047834984)
(0.019454025 -2.6206799e-005 -0.0056712132)
(0.019986191 -0.00011528994 -0.0034703362)
(0.019461794 -0.00010457212 -0.00030598434)
(0.017402791 -0.00013619886 -0.0010021941)
(0.012167043 -0.00022965955 -0.0019368852)
(0.0088087406 -0.00021342488 -0.00061182888)
(0.0080625478 3.0273786e-005 -5.4834106e-005)
(0.0078340292 0.00024619616 9.7576494e-005)
(0.0092548919 0.00020204562 5.6408119e-005)
(0.011047274 0.0001304587 -0.0016759957)
(0.011553306 3.8299078e-005 -0.0031332766)
(0.011623268 -8.2026601e-005 -0.0020511567)
(0.012754587 -0.0001002022 -0.0010615859)
(0.016142866 -9.7107534e-005 -0.00010758929)
(0.049346641 -0.00070445536 0.0022458606)
(0.055906345 -0.0010306476 0.0059551224)
(0.070827057 -0.0011049454 0.012454629)
(0.074537729 -0.00088874418 0.0097717907)
(0.062224277 -0.00068074667 0.0039194436)
(0.053856764 -0.00042173214 -0.00035258991)
(0.057356091 -0.00013804932 -0.0049256911)
(0.06434092 -0.00029512717 -0.009488643)
(0.051034976 -0.00065070259 -0.011751062)
(0.031670356 -0.00056205234 -0.0093638212)
(0.025346961 -0.00017901484 -0.0057494157)
(0.023520934 -2.4837705e-005 -0.00069342847)
(0.024623366 -8.5193992e-005 0.0017143988)
(0.030595781 1.2628826e-005 -0.001695848)
(0.03783912 -0.00015352157 -0.0066452807)
(0.047571002 -0.00046097692 -0.0095191917)
(0.055842976 -0.00074910222 -0.012242153)
(0.058127491 -0.00089147222 -0.0091658557)
(0.060294953 -0.00073351639 -0.0016582645)
(0.060869524 -0.00071115242 -0.0019728034)
(0.043402072 -0.00078871271 -0.0027323492)
(0.026259532 -0.00039035054 0.00021067811)
(0.021728016 0.00066837161 0.0013427141)
(0.022214906 0.0012343354 0.00091719972)
(0.028948922 0.00071019267 -0.00078319189)
(0.035427111 0.00029882248 -0.005209703)
(0.036698445 6.2753336e-005 -0.0084036507)
(0.03562023 -0.0002815133 -0.0063283252)
(0.036131533 -0.00045111178 -0.0034599947)
(0.043254875 -0.00055785691 -4.1406406e-005)
(0.067817945 -0.0013497105 0.0016368303)
(0.068615309 -0.0028297938 0.0045323984)
(0.091160357 -0.0041327385 0.015181889)
(0.11443238 -0.0030280301 0.016726922)
(0.10367306 -0.0015617211 0.0099631995)
(0.090308363 -0.0010268143 0.0037251847)
(0.087965322 -0.0011936915 -0.0011304663)
(0.1093202 -0.0012697613 -0.0054149101)
(0.11173652 -0.00096226738 -0.012779612)
(0.071380419 -0.00063888465 -0.013652488)
(0.047053801 -0.00013467168 -0.00926761)
(0.039968523 2.2401518e-005 -0.0021174066)
(0.037573101 -0.00017344521 0.0031253648)
(0.045131588 9.965067e-005 -0.00064712242)
(0.056385135 -0.00023525064 -0.0071773061)
(0.069031751 -0.0013291165 -0.0077136712)
(0.082522682 -0.0022815268 -0.010421847)
(0.085104349 -0.0026952665 -0.012163969)
(0.085668745 -0.0030038233 -0.0043569415)
(0.10601771 -0.0021930723 -0.003547335)
(0.093493823 -0.0010977907 -0.0031330941)
(0.050800197 -8.2320144e-005 0.0011793514)
(0.034947081 0.0019631187 0.0028472233)
(0.034558027 0.0028631137 0.0028835024)
(0.046111129 0.0012371484 0.0011541659)
(0.060325642 0.0001296504 -0.004966739)
(0.064664685 -8.6772791e-005 -0.011543974)
(0.061303219 -0.00040172983 -0.011237743)
(0.056434926 -0.00067349336 -0.0081754429)
(0.061785135 -0.0010325766 -0.0023060798)
(0.07781258 -0.00091961035 1.6255314e-006)
(0.070836987 -0.0032529402 0.001214858)
(0.082895046 -0.0076164351 0.011365896)
(0.1234145 -0.006789781 0.017060568)
(0.12253552 -0.003581475 0.012867718)
(0.11639052 -0.0020744181 0.0080338156)
(0.10855612 -0.0025962537 0.0031915083)
(0.11299837 -0.0040477999 0.0041294966)
(0.15653357 -0.0020911459 -0.0036257138)
(0.13025897 0.00039780454 -0.013356244)
(0.080616275 0.00078775102 -0.012828672)
(0.06064746 0.00040965655 -0.0057135163)
(0.051025078 -0.00030268105 0.0029532605)
(0.054467755 -0.00017814909 0.0020189015)
(0.066825255 -0.00026861392 -0.0049098535)
(0.077960536 -0.0016730714 -0.0029407932)
(0.092334805 -0.0034789166 -0.0020431162)
(0.10218015 -0.0038168023 -0.0093960415)
(0.094339127 -0.0053756396 -0.0065542181)
(0.10531396 -0.0063315182 -0.0079517065)
(0.13675462 -0.0024607193 -0.0072822154)
(0.090350025 0.000596539 0.0017622857)
(0.050203101 0.0031983198 0.0044988165)
(0.046221427 0.0045301943 0.0063067429)
(0.058715669 0.0016175132 0.0073143125)
(0.078880742 -0.00064666053 0.001018037)
(0.08956525 -0.00079779071 -0.0098974125)
(0.086891208 -0.00064366611 -0.013992229)
(0.075512702 -0.00046616075 -0.013144487)
(0.074059153 -0.00085444387 -0.0063525279)
(0.083804671 0.00049807249 -0.0012533555)
(0.077088588 -0.001425172 -0.00043987689)
(0.077591121 -0.0088344753 0.0068899373)
(0.11625405 -0.010399516 0.013460446)
(0.12950733 -0.0063870215 0.0098517764)
(0.12773692 -0.0040773747 0.0088637868)
(0.12666088 -0.002998074 0.004819423)
(0.097649731 -0.0069072749 0.0074532881)
(0.14069934 -0.0063051564 0.0077985317)
(0.16381979 0.00039559844 -0.0056422583)
(0.12166265 0.0027089746 -0.013203725)
(0.089909705 0.0015496743 -0.010639227)
(0.070886369 -7.4431338e-005 -0.00076184191)
(0.065210661 -0.00061147903 0.0034988225)
(0.07208763 -0.00041165684 -0.0010187832)
(0.0793113 -0.0015840237 0.0011598129)
(0.090255528 -0.00454431 0.0045055818)
(0.10305036 -0.0043318376 -0.0041580895)
(0.11374301 -0.0044488762 -0.0066040708)
(0.09797649 -0.0096676704 -0.010570015)
(0.13412612 -0.0071112288 -0.016205891)
(0.12961409 0.00033278721 -0.0019002985)
(0.072577138 0.0039201394 0.0070070222)
(0.05854697 0.0052290318 0.010611683)
(0.072056653 0.0015524855 0.015694965)
(0.092341556 -0.0020083197 0.010895118)
(0.10635764 -0.0024143512 -0.0033285562)
(0.10670772 -0.0016622845 -0.012964908)
(0.09225729 -0.00033986663 -0.015905268)
(0.083897334 -7.7804816e-005 -0.0098185891)
(0.088120809 0.0022955294 -0.0019093736)
(0.084332913 0.0016233257 -0.0012744967)
(0.085755799 -0.0072165109 0.0032209562)
(0.10760647 -0.012272586 0.010869067)
(0.13461578 -0.0090075737 0.0054084402)
(0.13626845 -0.006530393 0.0053446725)
(0.13626298 -0.0026145917 0.0052811055)
(0.10422965 -0.0071828589 0.0053296437)
(0.1125156 -0.011369372 0.010797523)
(0.1539898 -0.0025379466 0.0025912836)
(0.14235857 0.0036908549 -0.009002681)
(0.12278899 0.0030335371 -0.01445142)
(0.099784389 0.00057675934 -0.0081595367)
(0.082952789 -0.00083473033 0.0012476547)
(0.080169913 -0.00052703779 0.001428933)
(0.081962258 -0.0011781526 0.0020811616)
(0.093856973 -0.0046921565 0.0047908498)
(0.096195706 -0.0048254639 1.3158517e-005)
(0.11643427 -0.0023986798 -0.0030729287)
(0.12493678 -0.0083840649 -0.0078381009)
(0.12085806 -0.011599669 -0.019437923)
(0.14721102 -0.0022559885 -0.011067318)
(0.10821943 0.0038622174 0.0050655271)
(0.081764405 0.0041161026 0.013046193)
(0.09271321 0.00011128647 0.02109282)
(0.10880646 -0.0036856394 0.019389162)
(0.1191556 -0.0044145954 0.0047486177)
(0.11732225 -0.0034900794 -0.008748084)
(0.10250958 -0.0008400759 -0.01595004)
(0.091221544 0.00088582818 -0.011649835)
(0.092301429 0.0038391125 -0.0025650714)
(0.089853667 0.0043915908 -0.0031724796)
(0.095459603 -0.0041078147 -0.0024057937)
(0.10620948 -0.012103703 0.0071312419)
(0.13467123 -0.011330423 0.0030834651)
(0.14450562 -0.0087784553 0.00011302019)
(0.13805135 -0.0023950873 0.0043580686)
(0.1235246 -0.0060727638 0.0038576721)
(0.1173406 -0.014274677 0.0073890564)
(0.13604677 -0.0061347328 0.0062488611)
(0.13379345 0.0025407943 -0.002130342)
(0.14524967 0.0028345786 -0.013968685)
(0.13839489 0.0011884996 -0.016775494)
(0.11179529 -0.00049296945 -0.005660184)
(0.096239764 -0.00050825234 6.5374126e-005)
(0.091633962 -0.00080480776 -8.2653955e-005)
(0.1080696 -0.0037620245 0.0011678658)
(0.10712813 -0.0037505035 5.7578589e-005)
(0.10604546 -0.0015745081 -0.0013246766)
(0.13669232 -0.0066169654 -0.0068361119)
(0.13138077 -0.012558665 -0.015826472)
(0.14405188 -0.0059404683 -0.016176158)
(0.13565626 0.0023134248 -0.003926119)
(0.11548147 0.0019077473 0.0058291295)
(0.11872175 -0.0023330013 0.017858806)
(0.1291339 -0.0051901938 0.021437674)
(0.13456258 -0.0056973084 0.0097194666)
(0.12362436 -0.0050305584 -0.0038739486)
(0.10609275 -0.0017714886 -0.013757175)
(0.095576251 0.0015478696 -0.012043935)
(0.096989356 0.0047404819 -0.0034977687)
(0.095296118 0.0061237994 -0.0051792065)
(0.1007877 -0.0012306535 -0.0069850566)
(0.11160768 -0.010780682 0.0021968169)
(0.1333723 -0.013047021 0.0017973362)
(0.14574649 -0.010860617 -0.0027639484)
(0.13655448 -0.0025613369 0.0025553109)
(0.13400737 -0.0051869916 0.0022813712)
(0.13390075 -0.015632363 0.0033774752)
(0.13135677 -0.0079545224 0.0049495251)
(0.11639343 0.001145812 0.0029547188)
(0.14363358 -0.00045558847 -0.0052959695)
(0.16402406 -0.00080718793 -0.016925354)
(0.14058116 -0.00060981698 -0.01187608)
(0.11853013 -0.00022143242 -0.0039018125)
(0.10637428 -0.00045939154 -0.003109187)
(0.12094713 -0.0034239763 -0.0024479564)
(0.13021784 -0.0025383019 -0.0022083878)
(0.11613125 -0.001093134 -0.0033965158)
(0.13052441 -0.0059040087 -0.010548057)
(0.14058219 -0.012614798 -0.015529199)
(0.1410935 -0.0084956476 -0.01473871)
(0.14324411 -0.00058204054 -0.01146239)
(0.12917805 -0.00087013803 -0.0063764948)
(0.1251268 -0.0048511673 0.0077859183)
(0.13582368 -0.0065287887 0.015951289)
(0.14483157 -0.0059876978 0.0089419097)
(0.12977353 -0.0052495621 -0.0011287331)
(0.10836592 -0.0022013992 -0.010787964)
(0.098760405 0.0019205977 -0.011655632)
(0.10182861 0.0049688108 -0.0050985427)
(0.10072287 0.0067936341 -0.0064571458)
(0.1031496 0.00057997816 -0.0086345408)
(0.11673196 -0.0093853208 -0.0010190687)
(0.13504516 -0.013961436 0.00019023348)
(0.14121071 -0.012463513 -0.0031057878)
(0.133649 -0.0029861478 0.0015761672)
(0.13862713 -0.0048319543 -0.00034127569)
(0.13796811 -0.016808273 3.5503828e-005)
(0.13100823 -0.0088382084 0.001797198)
(0.11135295 0.00072898918 0.0039015219)
(0.13065845 -0.0040005847 0.0043798654)
(0.16380562 -0.0043574614 -0.007737258)
(0.15082169 -0.0022319012 -0.010489793)
(0.13323142 -0.00078233772 -0.0059564005)
(0.12288974 -0.00011297096 -0.0056633685)
(0.12585735 -0.0036740311 -0.0042396066)
(0.1381956 -0.0032500144 -0.0022028188)
(0.13477259 -0.0017281415 -0.0029508403)
(0.13528282 -0.0059826417 -0.010587375)
(0.13941979 -0.012750032 -0.015254658)
(0.14296353 -0.010150546 -0.011784105)
(0.14383546 -0.0031152709 -0.013607031)
(0.12096626 -0.0030427083 -0.012846495)
(0.10969203 -0.0068404099 -5.6179723e-005)
(0.12525223 -0.0078683513 0.0079868555)
(0.14241749 -0.005921828 0.0040858789)
(0.13235542 -0.0044384254 -0.0012969801)
(0.11194087 -0.0019732327 -0.0086055273)
(0.10251401 0.0020802502 -0.011490095)
(0.10579616 0.0048021368 -0.0079092706)
(0.10573575 0.0068148157 -0.0074898073)
(0.10699851 0.0016429722 -0.0092275735)
(0.12122927 -0.0079733238 -0.0022555682)
(0.13893743 -0.014071371 -0.00060308939)
(0.13835172 -0.013350256 -0.0036036498)
(0.13301592 -0.0035361523 0.00012117603)
(0.14241238 -0.0042084782 -0.00093340192)
(0.13424551 -0.017196131 -0.00041742392)
(0.12821901 -0.010452034 0.00036478081)
(0.11721935 0.00025653691 0.0026258317)
(0.12575398 -0.0060649943 0.0064927228)
(0.15504664 -0.0068949072 -0.0011743472)
(0.15288499 -0.0037487385 -0.0077701969)
(0.14122667 -0.0022332207 -0.0073922544)
(0.13639985 -0.00012322484 -0.0074738326)
(0.13235478 -0.0032901679 -0.0049967483)
(0.13336695 -0.0045389817 -0.0026605179)
(0.13516401 -0.0031162935 -0.0010896282)
(0.13902615 -0.006543199 -0.0060467155)
(0.13598955 -0.012573206 -0.011461944)
(0.14132981 -0.011327258 -0.007994777)
(0.14214715 -0.0044185106 -0.01144371)
(0.11261506 -0.0038646598 -0.01460794)
(0.098624331 -0.0081463881 -0.0052561201)
(0.11593995 -0.0089594683 0.0011041461)
(0.13689336 -0.0055644629 -0.0013558146)
(0.13432094 -0.0030963681 -0.0030327431)
(0.11879793 -0.0014415177 -0.0078665436)
(0.10718865 0.0019353582 -0.012518526)
(0.10970668 0.0043822006 -0.011049448)
(0.10983714 0.0061275502 -0.0089703871)
(0.11407978 0.0019424212 -0.0098505435)
(0.12689623 -0.0065867643 -0.0020433377)
(0.14214843 -0.01333998 0.00077671996)
(0.13967903 -0.013538017 -0.0048745461)
(0.13488986 -0.004045042 -0.0034988763)
(0.14237355 -0.0028434837 0.0014666311)
(0.13169288 -0.015988587 0.0035440865)
(0.12488023 -0.01250383 0.0012418011)
(0.1241376 -0.0010391417 0.00069596349)
(0.12869721 -0.0066329783 0.0039714728)
(0.15047419 -0.0083551739 0.00079465066)
(0.15738843 -0.0047964174 -0.0064335872)
(0.14993114 -0.0032436738 -0.0095817983)
(0.14584921 -0.00015069775 -0.0093215846)
(0.14161517 -0.0021948613 -0.0054002701)
(0.13300573 -0.0048749508 -0.0039437431)
(0.13092486 -0.0040188841 -0.00092700967)
(0.13719709 -0.0065362089 -0.0023134142)
(0.13305038 -0.011987492 -0.007744742)
(0.13443637 -0.011483709 -0.003971317)
(0.13938419 -0.0047824184 -0.0078413957)
(0.1170394 -0.0038638894 -0.015789162)
(0.10253654 -0.0086922175 -0.0093927367)
(0.11332796 -0.0094647239 -0.0032062951)
(0.13344585 -0.0048479181 -0.0055288603)
(0.13736303 -0.0014544848 -0.0051462834)
(0.12748324 -0.00051075347 -0.0072902878)
(0.11432717 0.001871208 -0.01350373)
(0.11643221 0.0039514591 -0.012228995)
(0.11616024 0.0046802764 -0.01058389)
(0.12182026 0.0012061875 -0.010820981)
(0.13270359 -0.0056793814 -0.0020038741)
(0.14414531 -0.012151552 0.0024244569)
(0.14203486 -0.013339915 -0.0051417051)
(0.13842478 -0.0043018561 -0.0071447154)
(0.13867615 -0.0011076562 0.0037415208)
(0.12904971 -0.013064225 0.009338134)
(0.12293142 -0.013261921 0.0026290673)
(0.1254818 -0.0030980648 -0.0011209289)
(0.13132462 -0.0063047339 0.0010486915)
(0.14816901 -0.0085023236 0.00040817394)
(0.15964372 -0.005378545 -0.0051955324)
(0.15592941 -0.0035662745 -0.010208032)
(0.15210729 0.00026944109 -0.011023823)
(0.15021676 -0.00054894505 -0.0060609376)
(0.13553401 -0.0043984436 -0.004221275)
(0.12834481 -0.0048743525 -0.0013900608)
(0.13950311 -0.0066247806 -0.00022903093)
(0.13495306 -0.010825587 -0.0048971497)
(0.1239413 -0.011005738 -1.4568404e-005)
(0.13420805 -0.0055496523 -0.0029909818)
(0.13140945 -0.0039360607 -0.0151778)
(0.11787987 -0.0080937018 -0.01167045)
(0.11564149 -0.0090336873 -0.0046484445)
(0.13002351 -0.0041802429 -0.0077662728)
(0.14096057 -0.00015338803 -0.0077451052)
(0.13676822 0.00045278993 -0.0064925219)
(0.12283244 0.0019854496 -0.011971615)
(0.12751638 0.0035644285 -0.010584711)
(0.1282916 0.0039785886 -0.011102622)
(0.13245055 0.0011535542 -0.011789833)
(0.13934622 -0.0045161779 -0.0030312784)
(0.14795951 -0.01029735 0.001988611)
(0.1454868 -0.012685841 -0.0042161353)
(0.14032804 -0.0042369274 -0.0079218455)
(0.13769025 0.00082038789 0.0034659583)
(0.12867255 -0.0088525054 0.012942737)
(0.12448628 -0.012205422 0.00442891)
(0.12425933 -0.0052871358 -0.0022930544)
(0.13219687 -0.0062321758 -0.0017997626)
(0.14764252 -0.0081548053 -0.0018858292)
(0.16055654 -0.0059502188 -0.0050549463)
(0.15956785 -0.004023003 -0.0093677252)
(0.15659374 0.00065581193 -0.011887166)
(0.15697389 0.0016032556 -0.0073106862)
(0.14019553 -0.003173675 -0.0042747603)
(0.12656621 -0.0059328051 -0.0018467728)
(0.13678259 -0.0065476394 0.0014941155)
(0.13623102 -0.0085492939 -0.0014815424)
(0.11630823 -0.01047256 0.0034710899)
(0.12350216 -0.0082329492 0.0027479012)
(0.13896752 -0.005719369 -0.011394016)
(0.13286164 -0.0072174808 -0.011678366)
(0.12300559 -0.0075795357 -0.0044510026)
(0.12758321 -0.0036866191 -0.0079342532)
(0.14068022 4.4329575e-005 -0.010043876)
(0.1465236 0.00098363971 -0.0065764193)
(0.13612513 0.0021193786 -0.0088436671)
(0.14180254 0.0033437639 -0.0077886217)
(0.13999946 0.0038522343 -0.0079412851)
(0.1403863 0.0024062683 -0.0094495253)
(0.14145275 -0.0026317445 -0.0026843898)
(0.14912565 -0.0080869273 0.001218715)
(0.14725171 -0.011235822 -0.0029901262)
(0.13849007 -0.0039025752 -0.0060403431)
(0.13650182 0.0025709382 0.0026211497)
(0.13093578 -0.0044458934 0.012269447)
(0.12693081 -0.0097600011 0.0058441836)
(0.12386588 -0.0069426424 -0.0029229784)
(0.13387797 -0.0069891176 -0.0046112146)
(0.1493514 -0.0079388769 -0.0047005017)
(0.16058125 -0.0066093251 -0.0059400479)
(0.16162077 -0.004682285 -0.0083080874)
(0.15954864 0.00090965376 -0.011497542)
(0.16031082 0.0034883161 -0.0086552931)
(0.14506503 -0.0014888303 -0.004945144)
(0.12790488 -0.0060157082 -0.0023327752)
(0.13099186 -0.0059343956 0.0025071486)
(0.13425418 -0.0059577313 0.0026107535)
(0.11825402 -0.0095757398 0.007187191)
(0.11705595 -0.011530611 0.0075840201)
(0.13423324 -0.0093588551 -0.0061671416)
(0.13474495 -0.0077126487 -0.0090029188)
(0.12769804 -0.006208059 -0.0025990658)
(0.12761696 -0.0029988233 -0.0058006217)
(0.13643983 -0.00058624627 -0.010524562)
(0.14780314 0.00042917405 -0.0079240816)
(0.14798141 0.0022453965 -0.0076604358)
(0.15112411 0.0030322337 -0.0070427568)
(0.1459989 0.0043626041 -0.0043916007)
(0.14343478 0.0041206604 -0.0054677079)
(0.14398454 -0.0003590916 -0.002797285)
(0.14961771 -0.0058434564 -2.1149414e-005)
(0.14806803 -0.0094916669 -0.0017684167)
(0.1387586 -0.0037105308 -0.0029881306)
(0.13766617 0.0038239551 0.0013346421)
(0.13681089 -0.00062663949 0.0077386958)
(0.13190736 -0.0066373872 0.0051269659)
(0.12638257 -0.0076603208 -0.0028517673)
(0.13604935 -0.0078966269 -0.0066124354)
(0.15194508 -0.0077370902 -0.0070318936)
(0.161073 -0.0072436613 -0.0071494644)
(0.16144935 -0.0056243674 -0.007722308)
(0.16023785 0.0010064948 -0.010365126)
(0.16206765 0.0047071162 -0.0095476335)
(0.14865523 -1.2202929e-006 -0.0063038243)
(0.13033342 -0.0044801539 -0.002829951)
(0.1269342 -0.0038889354 0.0034172594)
(0.13022121 -0.0036649166 0.0067318008)
(0.12395302 -0.0088141697 0.011652646)
(0.11972269 -0.013563409 0.012218264)
(0.12858014 -0.012269964 -0.00072072262)
(0.12953105 -0.0087141326 -0.004607023)
(0.12748058 -0.0056364274 0.0010044149)
(0.12839776 -0.0024998784 -0.0020473091)
(0.1325727 -0.00081101428 -0.0093822485)
(0.14376866 -0.00040733699 -0.0093708015)
(0.15143623 0.0015359368 -0.008378181)
(0.15302644 0.00302739 -0.0068772835)
(0.14749465 0.0049050129 -0.0022987794)
(0.14457123 0.0052119441 -0.0024584915)
(0.14611171 0.001694722 -0.0038232676)
(0.14978835 -0.0035446787 -0.0020080101)
(0.14623883 -0.0070485805 -0.00023615522)
(0.13815382 -0.0030101808 -9.043329e-005)
(0.14050366 0.0042693396 -0.0010512161)
(0.14406695 0.0021873455 0.00096477425)
(0.13831142 -0.0030748709 0.0018559623)
(0.13215124 -0.0065771973 -0.0025323661)
(0.14042719 -0.0078722663 -0.0073112937)
(0.15499896 -0.0073934459 -0.0085863517)
(0.16090046 -0.0073729693 -0.0081148268)
(0.15825086 -0.0065233748 -0.0072340705)
(0.15655594 0.00016852491 -0.0092692006)
(0.15945653 0.0050238305 -0.0099048451)
(0.14839515 0.001498853 -0.007423779)
(0.12946608 -0.0019212308 -0.0034527434)
(0.12379604 -0.00060640467 0.0045385867)
(0.13019397 -0.0010095319 0.010371329)
(0.1321984 -0.0080632546 0.015132118)
(0.12650956 -0.014577925 0.016357814)
(0.12752578 -0.013757868 0.0047676425)
(0.12616369 -0.0094432814 -0.00072956751)
(0.12542899 -0.0056101543 0.0039357782)
(0.12841878 -0.0024149428 0.001766782)
(0.13180067 -0.00076843802 -0.006705662)
(0.14236638 -0.00042515063 -0.0096717228)
(0.1518336 0.0012885066 -0.009009596)
(0.15259941 0.0040153134 -0.0064618793)
(0.1469664 0.0052429147 -0.0017741368)
(0.14308133 0.0053707536 -0.0014946485)
(0.14752497 0.0033389224 -0.005461171)
(0.15237719 -0.0010865522 -0.0052807662)
(0.14390858 -0.0045207467 -0.00035279012)
(0.13573634 -0.0026173858 0.0028945307)
(0.1442577 0.0031168691 -0.0010317467)
(0.15162242 0.0037940828 -0.0038124441)
(0.14324101 0.00034228492 -0.002323228)
(0.13595536 -0.0045209417 -0.0026263382)
(0.14615342 -0.0066338274 -0.0068089092)
(0.15983145 -0.006269163 -0.0094307147)
(0.16264423 -0.0066105862 -0.0089016861)
(0.15503711 -0.0066893125 -0.0064415476)
(0.14891971 -0.0015019142 -0.0076392836)
(0.15053176 0.0040304928 -0.0098452642)
(0.14430465 0.0027915098 -0.0086268015)
(0.12823596 0.00097650152 -0.0050498894)
(0.12260197 0.0024088839 0.0034985982)
(0.13348281 0.00089998127 0.010620707)
(0.14283927 -0.0065380346 0.015537058)
(0.13576085 -0.013291821 0.018931092)
(0.12968798 -0.012878693 0.0099242363)
(0.12624604 -0.0088449632 0.0018032978)
(0.12579215 -0.0054270028 0.003810021)
(0.1295717 -0.0024886733 0.0028708463)
(0.13188228 -0.00092284547 -0.0044657487)
(0.13986977 -0.00045923789 -0.0086525521)
(0.14995293 0.0017564945 -0.0082839515)
(0.15224641 0.0047673605 -0.0066290737)
(0.1511027 0.0048135669 -0.0041975179)
(0.14526972 0.0035712968 -0.0032679433)
(0.14869744 0.002756453 -0.0081762888)
(0.15680169 0.00099904278 -0.0091053759)
(0.14811016 -0.0018184008 -0.0027468092)
(0.13732131 -0.0029174765 0.0046324902)
(0.14706735 0.00026275443 0.0025678288)
(0.15400085 0.0042804402 -0.0044175457)
(0.14347103 0.0036592114 -0.0071183993)
(0.1345463 -0.0035282369 -0.0041923445)
(0.14366996 -0.0074291085 -0.0037435134)
(0.1598996 -0.0060295598 -0.007428812)
(0.16381577 -0.0054125842 -0.0091546466)
(0.15286229 -0.0053644532 -0.0054494129)
(0.14188574 -0.0021366491 -0.0030763774)
(0.14294427 0.002644816 -0.006238561)
(0.14169459 0.0036597902 -0.0082536058)
(0.12916236 0.0033499667 -0.0057346038)
(0.12480782 0.0046290528 0.0016710203)
(0.13885461 0.0030330595 0.0073311897)
(0.14880056 -0.0032789826 0.011445899)
(0.13751639 -0.0096841266 0.016925766)
(0.12752287 -0.010736952 0.011794563)
(0.12430054 -0.0075136653 0.003085586)
(0.12504548 -0.0044629283 0.0026135998)
(0.13073334 -0.0022518637 0.0013585194)
(0.13341364 -0.0011770137 -0.0051292107)
(0.1377466 -0.0004135076 -0.0082641123)
(0.14536205 0.0022829408 -0.00660336)
(0.1511485 0.0048424552 -0.005807349)
(0.15992877 0.003572902 -0.0072897943)
(0.15773126 0.0013340586 -0.006836996)
(0.1541511 0.0011162775 -0.010298089)
(0.15815023 0.0026764989 -0.0095308326)
(0.15313716 0.001061922 -0.0026062794)
(0.14364717 -0.0036273664 0.0044681833)
(0.14763981 -0.0024053541 0.0019911749)
(0.14932876 0.0054779552 -0.0079285074)
(0.14179163 0.0074815501 -0.013683233)
(0.13697412 -0.0033212357 -0.006239805)
(0.13993571 -0.011938216 0.0032221357)
(0.1548895 -0.0091538523 0.00058362353)
(0.16361041 -0.0047569362 -0.0060012773)
(0.15007755 -0.0035864143 -0.004000247)
(0.13645169 -0.0017969108 0.0011019682)
(0.13983261 0.0019711852 -0.0024472764)
(0.13967599 0.0046242002 -0.0073657608)
(0.12884782 0.0059054344 -0.0053782774)
(0.12741333 0.0068278178 0.0013156284)
(0.13942954 0.0059625336 0.0043106819)
(0.14716838 0.0021230246 0.0069647409)
(0.13876548 -0.0043710076 0.014468834)
(0.12772321 -0.0089138872 0.01351864)
(0.1231635 -0.0079324797 0.0060480904)
(0.12465385 -0.0042351334 0.0041129822)
(0.13293789 -0.001980416 0.0013499286)
(0.13818014 -0.0016893612 -0.0063762299)
(0.13796806 -0.00012498536 -0.0086749573)
(0.14078889 0.0033614368 -0.0045268611)
(0.15016711 0.0038558194 -0.0040965319)
(0.16444401 -0.0001390964 -0.0080067639)
(0.16521176 -0.0022012638 -0.0093646089)
(0.15612795 -0.00087031719 -0.01009292)
(0.15643417 0.0029545043 -0.0075170317)
(0.15873421 0.0021529069 -0.0014056784)
(0.15357973 -0.0036782211 0.0034587623)
(0.14635124 -0.002868959 -0.0018974058)
(0.13980251 0.0057701124 -0.014206389)
(0.13885705 0.0081067328 -0.018660368)
(0.14139523 -0.0033200637 -0.006691892)
(0.14046396 -0.014742736 0.0087551547)
(0.14871089 -0.012348315 0.0072699964)
(0.1575394 -0.0048126377 -0.0037442488)
(0.14682629 -0.0021462593 -0.0038778845)
(0.13318683 -0.0012989982 0.0032731671)
(0.1374974 0.0023351766 0.00013430875)
(0.14002876 0.005444458 -0.0066213244)
(0.13171982 0.0074216247 -0.0064010089)
(0.13002601 0.010282943 -0.002187394)
(0.13836478 0.010586163 -0.0018663413)
(0.14598303 0.0063673542 0.00022521508)
(0.1434533 0.00027741309 0.0090175978)
(0.13343759 -0.0056227982 0.012759886)
(0.12620505 -0.0079932439 0.010586403)
(0.12494968 -0.0050510544 0.0092638344)
(0.13391771 -0.0024050474 0.0050710226)
(0.14359597 -0.0020511569 -0.0039879128)
(0.14335994 0.0011541447 -0.0080467212)
(0.1413564 0.0055824224 -0.0041017967)
(0.14572076 0.0032532603 -0.00098854348)
(0.15846585 -0.0028067496 -0.0061619288)
(0.16287084 -0.0030132961 -0.011267613)
(0.15236227 -0.0014404839 -0.0094638947)
(0.1522671 0.0016629884 -0.0041431798)
(0.16079604 0.0010689853 -0.001583363)
(0.15899248 -0.0034807217 -0.00020456728)
(0.14726636 -0.001141892 -0.0040311971)
(0.14250908 0.0070837022 -0.01462119)
(0.1503911 0.0078157788 -0.01891269)
(0.14994318 -0.0034564542 -0.0071171025)
(0.13640132 -0.015139239 0.012075514)
(0.13693261 -0.013862418 0.012580779)
(0.15093142 -0.0046019672 -0.0017771879)
(0.14690163 0.00050853301 -0.0033446263)
(0.13424309 0.00060963482 0.0037914653)
(0.1352613 0.0026866936 -0.0001375447)
(0.13549005 0.0059870183 -0.0068230472)
(0.12773591 0.0096926092 -0.0076962982)
(0.12537382 0.013604034 -0.0077576812)
(0.13537006 0.013433311 -0.0090088773)
(0.14835716 0.010097665 -0.0056446428)
(0.14626359 0.0053634406 0.0022539478)
(0.13449349 -0.0021859024 0.007611354)
(0.12955311 -0.0066325847 0.011956789)
(0.1266817 -0.0046776234 0.01481137)
(0.12915054 -0.0032077431 0.011741391)
(0.13921106 -0.0026525208 0.0020914275)
(0.14419595 0.0032717583 -0.0048836381)
(0.14200389 0.0085520182 -0.0024025697)
(0.14221454 0.0033556752 0.0019572227)
(0.14793692 -0.0053001203 -0.0025568862)
(0.15361968 -0.0022769493 -0.0095854094)
(0.1488604 -0.00047167261 -0.0093346833)
(0.15047549 -0.0015758963 -0.0036753443)
(0.16140085 -0.0019566725 -0.0040234041)
(0.16022824 -0.0029791522 -0.0046643829)
(0.15009147 0.0016713121 -0.0026799492)
(0.15030855 0.0085070623 -0.0057851376)
(0.15997716 0.0075823995 -0.011839547)
(0.16098623 -0.0024975747 -0.0076078473)
(0.14616801 -0.01433627 0.010628418)
(0.13444452 -0.015748361 0.018187042)
(0.14640982 -0.006179664 0.0032499604)
(0.14793507 0.0028984181 -0.0049517607)
(0.13686006 0.0040662816 0.0016305842)
(0.13493317 0.0039265181 0.0019804672)
(0.13437394 0.0060304943 -0.0036166297)
(0.12986355 0.010889138 -0.0091348879)
(0.12954559 0.014886593 -0.014418896)
(0.13741851 0.014052456 -0.017748531)
(0.14638388 0.012623823 -0.016342895)
(0.14745283 0.011001428 -0.0078524117)
(0.14427426 0.0030847901 0.0012581154)
(0.14233381 -0.0037621934 0.0095344139)
(0.13461452 -0.0026383128 0.016997311)
(0.12944643 -0.0022234814 0.017744539)
(0.13469237 -0.0026212118 0.0096903281)
(0.1384995 0.0048892588 0.0019884807)
(0.1386686 0.011574481 0.0022251292)
(0.1481847 0.0037827583 0.0018048236)
(0.14566201 -0.0066794791 -0.0037620364)
(0.14685816 -0.0027168167 -0.0081802649)
(0.15167154 0.00029569075 -0.0072980878)
(0.15049121 -0.0047823789 -0.002837611)
(0.15016296 -0.0054965317 -0.0045825598)
(0.15404637 -0.00098150084 -0.0068126182)
(0.15520162 0.0049910675 -0.002184649)
(0.15816548 0.0080743396 0.00069609824)
(0.16166498 0.0048357955 -0.0054410241)
(0.16219519 -0.0052881059 -0.0081200662)
(0.15803639 -0.015206109 0.0031916415)
(0.14311461 -0.016407518 0.014731074)
(0.14556531 -0.0091689849 0.0082544536)
(0.15160051 0.0018332442 -0.0024485837)
(0.14459119 0.0071792815 0.00086429923)
(0.13760739 0.0070753275 0.0048396646)
(0.13168015 0.0054780111 4.1813124e-005)
(0.12641841 0.0087635627 -0.010257477)
(0.12613773 0.013882653 -0.017898692)
(0.13334157 0.012949876 -0.020372575)
(0.14390933 0.012107971 -0.019088134)
(0.14639636 0.013008225 -0.010112235)
(0.14013214 0.0068252308 -0.00076600332)
(0.13981684 -0.00086702412 0.0062479832)
(0.13689206 -0.0012437772 0.014921589)
(0.13360311 -0.0014243838 0.018563054)
(0.13689218 -0.00088037583 0.013436208)
(0.13220826 0.0077293489 0.0085722206)
(0.13586003 0.013588464 0.0070582087)
(0.14984305 0.002477477 0.0028342157)
(0.14803205 -0.0065148284 -0.0054865018)
(0.1468036 -0.0048266534 -0.0074933588)
(0.15463784 -0.0006711066 -0.005267154)
(0.15523104 -0.0038713279 -0.0027192585)
(0.14702366 -0.0065164168 -0.004581254)
(0.1495333 -0.0022018219 -0.0076453787)
(0.15889131 0.0046997286 -0.0042209787)
(0.16223309 0.0069228986 5.9407539e-005)
(0.16146557 0.0050419231 -0.0037389699)
(0.16665082 -0.0031683369 -0.0060312801)
(0.17195934 -0.013274596 0.0004144157)
(0.16095401 -0.015972847 0.009004802)
(0.15190068 -0.013172427 0.010497273)
(0.15356177 -0.0042166459 0.0037933996)
(0.15161063 0.0051179427 0.0019311306)
(0.1481604 0.0074310616 0.0040980882)
(0.14447288 0.0056371636 0.0012240906)
(0.13411442 0.0092220113 -0.0087351849)
(0.12670862 0.013198034 -0.015397892)
(0.1320021 0.0085515647 -0.015518874)
(0.1399653 0.0082267454 -0.014255753)
(0.1433895 0.013931066 -0.0068884569)
(0.13881476 0.010309426 0.0021358963)
(0.13515408 0.001237171 0.0079246033)
(0.1370296 -0.0018394186 0.012059541)
(0.13816952 -0.0019694957 0.013882451)