/*--------------------------------*- C++ -*----------------------------------*\
| =========                 |                                                 |
| \\      /  F ield         | OpenFOAM: The Open Source CFD Toolbox           |
|  \\    /   O peration     | Version:  5.x                                   |
|   \\  /    A nd           | Web:      www.OpenFOAM.org                      |
|    \\/     M anipulation  |                                                 |
\*---------------------------------------------------------------------------*/
/*   Windows 32 and 64 bit porting by blueCAPE: http://www.bluecape.com.pt   *\
|  Based on Windows porting (2.0.x v4) by Symscape: http://www.symscape.com   |
\*---------------------------------------------------------------------------*/
FoamFile
{
    version     2.0;
    format      ascii;
    class       volVectorField;
    location    "0.00000000";
    object      UMean;
}
// * * * * * * * * * * * * * * * * * * * * * * * * * * * * * * * * * * * * * //

dimensions      [0 1 -1 0 0 0 0];

internalField   nonuniform List<vector> 
51000
(
(0.011591087 5.0438458e-006 -0.00010645796)
(0.011573788 4.6655117e-006 -0.00012176446)
(0.011568701 3.8387904e-006 -0.00012569416)
(0.011581215 2.2585024e-006 -0.00012831507)
(0.011619587 1.1353108e-006 -0.0001477467)
(0.011647382 1.622972e-006 -0.00016454545)
(0.01164375 2.6629977e-006 -0.00017045283)
(0.011635238 3.0207584e-006 -0.00017727506)
(0.011631374 2.7978644e-006 -0.00017266351)
(0.01161085 3.2025572e-006 -0.00015017395)
(0.011581021 3.5145919e-006 -0.0001226595)
(0.011559017 2.7855036e-006 -0.00011079942)
(0.011547785 1.9877545e-006 -9.9729962e-005)
(0.011541438 1.9971368e-006 -7.4699992e-005)
(0.011534725 2.2363847e-006 -4.3294938e-005)
(0.011534014 2.1734173e-006 -1.3204977e-005)
(0.011531789 2.1565554e-006 1.0141829e-005)
(0.011529628 2.2687467e-006 1.7792428e-005)
(0.011517909 2.5281508e-006 1.0788476e-005)
(0.011508656 2.7473977e-006 8.7006815e-006)
(0.011505185 3.224228e-006 2.9829442e-006)
(0.01151504 3.9189356e-006 -3.6538348e-006)
(0.011520848 4.4930848e-006 -3.1530255e-006)
(0.011544534 5.0540116e-006 -8.7185043e-006)
(0.011567068 5.2935341e-006 -2.1723737e-005)
(0.011591192 5.4185067e-006 -3.6493756e-005)
(0.011601259 5.5379821e-006 -5.2231855e-005)
(0.01161481 5.4326999e-006 -6.1952408e-005)
(0.011609817 5.4862608e-006 -7.5122922e-005)
(0.011607736 5.2822544e-006 -9.1596178e-005)
(0.034873417 7.0742053e-006 -0.00026798142)
(0.034836435 6.3442724e-006 -0.00031360248)
(0.03483571 3.4230407e-006 -0.00033595093)
(0.034863881 -3.1763221e-006 -0.00034222311)
(0.034948894 -8.4389156e-006 -0.00036734384)
(0.035016288 -5.6549193e-006 -0.00039588246)
(0.035013282 2.4343655e-007 -0.00041239458)
(0.03500337 3.7820463e-006 -0.0004244081)
(0.0350025 5.7690784e-006 -0.00040747653)
(0.034953801 9.2547178e-006 -0.00036106596)
(0.034884622 1.1157342e-005 -0.00030516753)
(0.034826908 7.9411912e-006 -0.00027693585)
(0.034784273 3.5797456e-006 -0.00025028075)
(0.034758612 2.1358947e-006 -0.00020341118)
(0.034736161 1.6121041e-006 -0.00014915659)
(0.034731934 7.0032226e-007 -0.00010238374)
(0.03471883 7.8650524e-007 -7.1805829e-005)
(0.034706079 2.4232991e-006 -6.2827034e-005)
(0.034667881 5.2836269e-006 -7.3945969e-005)
(0.034629645 6.3346785e-006 -6.9989455e-005)
(0.034599871 5.9657949e-006 -6.2933053e-005)
(0.034618277 6.1563162e-006 -5.6126079e-005)
(0.034635907 6.1180168e-006 -4.4381698e-005)
(0.034713737 5.9937822e-006 -4.4939003e-005)
(0.034789731 4.6818933e-006 -7.0360422e-005)
(0.034857537 2.7544876e-006 -0.00010489129)
(0.034883632 1.834143e-006 -0.00013950183)
(0.034921901 2.1854071e-006 -0.00016474545)
(0.034904586 4.084058e-006 -0.00019151168)
(0.034906906 5.2041789e-006 -0.00022516881)
(0.05629152 -1.5283282e-005 -0.0003672342)
(0.056276888 -1.6558921e-005 -0.00042751286)
(0.056315849 -2.110471e-005 -0.00045902802)
(0.056364647 -3.1713746e-005 -0.00046740349)
(0.056457288 -3.9882144e-005 -0.00048864849)
(0.05652947 -3.1843523e-005 -0.00052005391)
(0.05652556 -1.8453938e-005 -0.00054268817)
(0.056521382 -9.1178071e-006 -0.00054850109)
(0.056534724 -5.0090689e-007 -0.00051408733)
(0.056501316 9.2318309e-006 -0.00046400291)
(0.056465651 1.3242283e-005 -0.00041130566)
(0.056430791 7.3976082e-006 -0.00038680075)
(0.056373389 -1.5663858e-006 -0.00035878943)
(0.056335014 -5.7520834e-006 -0.00031560776)
(0.056282838 -7.5890727e-006 -0.00026449396)
(0.056244649 -9.5599591e-006 -0.00022443858)
(0.056185014 -9.9363093e-006 -0.00021248549)
(0.056129506 -7.5765747e-006 -0.00020909837)
(0.056048905 -7.5266824e-007 -0.00020948196)
(0.055969734 2.4513232e-006 -0.00019172705)
(0.055886652 -9.8583909e-007 -0.00016500849)
(0.055878371 -5.3387725e-006 -0.00013572771)
(0.055902392 -1.0638223e-005 -0.00011619056)
(0.056029452 -1.5519678e-005 -0.00011522683)
(0.05616053 -2.1151657e-005 -0.00014526018)
(0.056263498 -2.7697094e-005 -0.00018416304)
(0.056292254 -3.2629875e-005 -0.00021962914)
(0.056350371 -3.181213e-005 -0.00024597824)
(0.056321777 -2.5873171e-005 -0.00027181144)
(0.056322749 -2.1703427e-005 -0.00030708633)
(0.073027614 -4.6971682e-005 -0.00038126518)
(0.073084924 -5.0357517e-005 -0.0004343136)
(0.073192473 -5.5626933e-005 -0.00046260065)
(0.07327473 -6.4889378e-005 -0.00047655077)
(0.073335564 -6.8070833e-005 -0.00049616528)
(0.07336184 -5.1611135e-005 -0.00053301836)
(0.073333587 -3.1139616e-005 -0.00055598611)
(0.073317359 -1.691256e-005 -0.00054823134)
(0.073329348 -2.3400872e-006 -0.00050884244)
(0.073347677 1.104507e-005 -0.00047817111)
(0.073412309 1.6032368e-005 -0.00045588572)
(0.073474705 1.0824261e-005 -0.0004545496)
(0.073443723 7.2279164e-007 -0.00044062098)
(0.073412609 -4.2698463e-006 -0.00042632638)
(0.073331716 -6.5094247e-006 -0.00038866105)
(0.073257699 -9.3635914e-006 -0.0003472683)
(0.073144918 -9.6314067e-006 -0.0003366114)
(0.073030639 -7.9109742e-006 -0.00032401793)
(0.072889891 4.6282461e-007 -0.00030841967)
(0.072773166 5.5055796e-006 -0.00028706314)
(0.072658352 -1.3461301e-007 -0.00025717448)
(0.072609898 -1.0926957e-005 -0.00021783526)
(0.072637363 -2.4834805e-005 -0.00020298903)
(0.072762959 -3.7464326e-005 -0.00021067574)
(0.072892577 -4.772348e-005 -0.00023530726)
(0.073003322 -5.7712579e-005 -0.00026231831)
(0.073028753 -6.8121886e-005 -0.00028541097)
(0.073097629 -6.9187383e-005 -0.00029524419)
(0.073058969 -6.156541e-005 -0.00030135817)
(0.073047649 -5.6797243e-005 -0.00032227214)
(0.085299504 -8.980823e-005 -0.00031806644)
(0.085399233 -9.9157439e-005 -0.00035022593)
(0.08550742 -0.00010467398 -0.00037467817)
(0.085599414 -0.0001058651 -0.00039350202)
(0.085605613 -9.5623826e-005 -0.00039957287)
(0.085568985 -7.0963758e-005 -0.00044109337)
(0.085506089 -4.6952357e-005 -0.00047054081)
(0.085464566 -2.8111995e-005 -0.00047327155)
(0.085458146 -9.6450617e-006 -0.00045087643)
(0.085528252 3.6888368e-006 -0.00044391089)
(0.085662186 7.7584505e-006 -0.00045267296)
(0.085807202 5.4220126e-006 -0.0004694554)
(0.085829659 -3.1742335e-006 -0.00047824512)
(0.085827466 -9.5239939e-006 -0.00051415115)
(0.085739143 -1.5862938e-005 -0.00049623356)
(0.085686016 -1.9233677e-005 -0.00044867755)
(0.085585053 -1.4546944e-005 -0.00042026023)
(0.085463693 -1.1196106e-005 -0.00039451539)
(0.085308711 -5.1549015e-006 -0.0003750316)
(0.085196598 -8.996553e-007 -0.00037065943)
(0.085105736 -5.4212051e-006 -0.00034483545)
(0.085039647 -1.887976e-005 -0.00028723389)
(0.085056444 -3.7985747e-005 -0.00026807723)
(0.085100445 -5.7059528e-005 -0.00026755737)
(0.08514517 -7.3601092e-005 -0.00026884816)
(0.085222416 -8.6731859e-005 -0.00027974964)
(0.085249109 -0.00010084834 -0.0002846459)
(0.085324151 -0.00010555299 -0.00027091156)
(0.085298072 -0.00010079941 -0.0002555765)
(0.085303578 -9.8026746e-005 -0.00026697252)
(0.094426746 -0.00012626282 -0.00022579103)
(0.094478745 -0.00013781777 -0.00023893644)
(0.094475393 -0.00014439731 -0.00024887699)
(0.094516813 -0.00013735241 -0.00024863144)
(0.094469928 -0.00011199528 -0.00024199772)
(0.094397333 -8.1919261e-005 -0.00027657799)
(0.094298302 -5.8365639e-005 -0.00031504982)
(0.094226384 -3.9921354e-005 -0.00034528428)
(0.094207114 -2.1059274e-005 -0.00035010818)
(0.094311076 -9.3035311e-006 -0.00036601975)
(0.094437401 -6.9485444e-006 -0.00039907049)
(0.094587502 -6.6109878e-006 -0.00043281907)
(0.094653515 -1.3537769e-005 -0.00046939107)
(0.094701803 -2.0830456e-005 -0.00053109707)
(0.094654233 -3.1320982e-005 -0.00052842115)
(0.094669548 -3.5310701e-005 -0.00049506835)
(0.094621606 -2.4758399e-005 -0.00047089018)
(0.094557237 -2.0390177e-005 -0.00044231657)
(0.094456871 -2.3166557e-005 -0.000420886)
(0.094399088 -2.0391806e-005 -0.00042785376)
(0.094336298 -1.6425933e-005 -0.00039230565)
(0.094278276 -2.5232742e-005 -0.00031046894)
(0.09425421 -4.407363e-005 -0.00026296213)
(0.094205179 -6.4379801e-005 -0.00023597549)
(0.09416687 -8.6596123e-005 -0.00021947218)
(0.094191144 -0.00010439939 -0.00022735507)
(0.094220535 -0.00012208244 -0.0002162108)
(0.094295034 -0.00013002307 -0.00018596814)
(0.094324749 -0.00013037729 -0.00016841096)
(0.094400892 -0.00013126202 -0.00018664122)
(0.10140571 -0.00015139389 -0.00013575602)
(0.10143495 -0.00015704842 -0.00014319217)
(0.10137042 -0.00016543864 -0.00012868693)
(0.10133989 -0.00015728039 -0.00010406902)
(0.10124197 -0.00012526038 -0.00010497166)
(0.10115693 -8.8546613e-005 -0.0001213875)
(0.10102323 -6.4993798e-005 -0.00014188423)
(0.10093361 -5.1106308e-005 -0.00017430725)
(0.10092654 -3.7326782e-005 -0.00021082686)
(0.10102468 -3.178814e-005 -0.00025193527)
(0.10109206 -3.2030548e-005 -0.0003151414)
(0.10120705 -3.0615526e-005 -0.00037529147)
(0.10127375 -3.5177762e-005 -0.00041785587)
(0.10136773 -3.9015873e-005 -0.00045443321)
(0.10138734 -4.8672062e-005 -0.00046356562)
(0.1014256 -5.3579454e-005 -0.00046683503)
(0.10139305 -4.4159693e-005 -0.00044486989)
(0.10140431 -4.3928314e-005 -0.00040131175)
(0.10136354 -5.2794303e-005 -0.00037862939)
(0.10132771 -4.8168527e-005 -0.00039459243)
(0.10125934 -3.8162653e-005 -0.00035727307)
(0.10123267 -4.37241e-005 -0.00029060502)
(0.10120462 -5.9348041e-005 -0.00022763589)
(0.1011463 -7.4573085e-005 -0.00019318099)
(0.10109612 -9.5855453e-005 -0.00017870294)
(0.10109502 -0.00011764883 -0.00018755184)
(0.10110885 -0.00013847848 -0.00015756566)
(0.10115201 -0.0001486917 -0.0001180802)
(0.10123376 -0.00015361404 -9.8383689e-005)
(0.10135636 -0.00015746346 -0.00011428942)
(0.10680948 -0.00016449132 -6.2722319e-005)
(0.10689654 -0.00016136147 -7.3183612e-005)
(0.10686716 -0.00016573575 -5.4498236e-005)
(0.10680098 -0.00015693701 -3.0418275e-005)
(0.10670517 -0.0001241567 -2.8296167e-005)
(0.10664175 -8.1227789e-005 -9.9784691e-006)
(0.1064988 -5.6946972e-005 9.2007576e-006)
(0.106376 -5.346668e-005 -1.2502501e-005)
(0.10638373 -5.0927379e-005 -6.6514697e-005)
(0.10641919 -4.9361639e-005 -0.0001204016)
(0.10645498 -5.4342573e-005 -0.00019165881)
(0.10654175 -5.405384e-005 -0.00026276011)
(0.1065521 -5.8122542e-005 -0.00030018657)
(0.10661469 -6.6445946e-005 -0.00031683425)
(0.10664333 -7.6442912e-005 -0.00034985318)
(0.10663303 -8.1945697e-005 -0.00037452798)
(0.10662513 -8.0818514e-005 -0.00033181129)
(0.10669874 -8.0620268e-005 -0.00027833101)
(0.10668617 -7.9873069e-005 -0.00025573668)
(0.10661998 -6.867036e-005 -0.00027357648)
(0.10651832 -6.098918e-005 -0.00024749748)
(0.10650198 -6.8844088e-005 -0.00023573202)
(0.10653115 -8.21634e-005 -0.00019894275)
(0.10654407 -9.3576337e-005 -0.00018860655)
(0.10653184 -0.00010797756 -0.00018780851)
(0.10654512 -0.00012403633 -0.00018351158)
(0.10652601 -0.00014141064 -0.00013247628)
(0.10651782 -0.00015641983 -8.5986191e-005)
(0.10659736 -0.00016765399 -4.9287631e-005)
(0.1067211 -0.00017396889 -4.8972794e-005)
(0.1111066 -0.00016826787 1.2809501e-005)
(0.11122587 -0.00015506186 1.2592442e-005)
(0.11124147 -0.00014767132 1.3162591e-005)
(0.11122092 -0.00013797264 1.656073e-005)
(0.11119151 -0.00010807456 3.5670305e-005)
(0.11120358 -6.2364659e-005 7.4283391e-005)
(0.11110737 -3.7886415e-005 0.00012011701)
(0.11097349 -4.9158156e-005 0.00011145147)
(0.11090282 -5.8885833e-005 7.8072249e-005)
(0.11087167 -5.8125222e-005 2.323305e-005)
(0.11088187 -6.7246183e-005 -2.6502218e-005)
(0.11092021 -6.9532505e-005 -8.8605316e-005)
(0.11088526 -7.6959294e-005 -0.00013492224)
(0.11088823 -9.2465175e-005 -0.00016524198)
(0.11089651 -0.00010265367 -0.00021208712)
(0.11090381 -0.00011201179 -0.00023486815)
(0.11093463 -0.00011915719 -0.00020580156)
(0.11098061 -0.0001135853 -0.00016919846)
(0.11095349 -9.9906142e-005 -0.00014444166)
(0.11087912 -8.3819081e-005 -0.00014920611)
(0.11076874 -7.7809017e-005 -0.00013863767)
(0.11071259 -8.6581293e-005 -0.00015899707)
(0.11076806 -0.00010205853 -0.00017145921)
(0.11084131 -0.00010880921 -0.00019485517)
(0.11085265 -0.00010957256 -0.00019519759)
(0.11089919 -0.00010957556 -0.0001746572)
(0.11088875 -0.00012180912 -0.00012211847)
(0.1108906 -0.0001411942 -7.3503036e-005)
(0.11091953 -0.00016092781 -1.5319217e-005)
(0.11102472 -0.00017522408 5.0197204e-006)
(0.11455574 -0.00014956017 8.664524e-005)
(0.11463787 -0.00013309976 0.0001191805)
(0.1147104 -0.00012057298 0.00011863674)
(0.1147638 -0.00011357215 0.00010859065)
(0.11477282 -9.2893436e-005 0.00012184884)
(0.11479423 -5.3117328e-005 0.0001470495)
(0.11477633 -2.9626865e-005 0.00018024932)
(0.11468381 -4.1088676e-005 0.00019291828)
(0.11457476 -5.1901962e-005 0.00018911573)
(0.11451784 -5.0002359e-005 0.00014660671)
(0.11448367 -5.4516262e-005 0.00012208687)
(0.11448657 -5.9101474e-005 8.3838063e-005)
(0.11447975 -6.9491847e-005 2.7754056e-005)
(0.11448251 -8.388586e-005 -2.5974573e-005)
(0.11453402 -9.5845328e-005 -6.7530419e-005)
(0.1145945 -0.00011185616 -8.749513e-005)
(0.11461528 -0.00012288743 -0.00010491668)
(0.11460607 -0.00011765652 -0.00011206443)
(0.11455077 -0.00010339264 -9.1580106e-005)
(0.11446376 -8.7940134e-005 -7.9350055e-005)
(0.11436674 -8.2164647e-005 -8.4540172e-005)
(0.11425741 -9.3149993e-005 -9.6997695e-005)
(0.11427153 -0.0001072042 -0.00013757981)
(0.11428044 -0.00010513647 -0.00018328911)
(0.11428382 -9.6649579e-005 -0.0001878882)
(0.11435749 -9.0127682e-005 -0.00017014152)
(0.11439899 -9.4131976e-005 -0.00013611)
(0.11444704 -0.00010303341 -8.4965646e-005)
(0.11447943 -0.00012396505 -2.1111554e-005)
(0.11452871 -0.00014959987 2.7282001e-005)
(0.11750157 -0.00011561355 0.00013780128)
(0.11754819 -0.00011312791 0.00018509333)
(0.11762333 -0.00010663701 0.00018791338)
(0.11770505 -9.6239972e-005 0.00018328025)
(0.11773111 -7.431789e-005 0.00018178295)
(0.11774589 -4.1294156e-005 0.00019378979)
(0.11776144 -2.1352121e-005 0.00021342198)
(0.11770988 -2.8581024e-005 0.00024626461)
(0.11763801 -4.3264619e-005 0.00024482693)
(0.11757461 -3.6178837e-005 0.00021702731)
(0.11751565 -2.7304843e-005 0.00020799179)
(0.11754838 -2.8702704e-005 0.00019872151)
(0.11762331 -3.3354692e-005 0.00015429271)
(0.11769147 -4.4268717e-005 9.5855028e-005)
(0.11776714 -6.1552674e-005 4.8191843e-005)
(0.11783404 -7.9098165e-005 1.7468895e-005)
(0.11786629 -8.7515438e-005 -4.1227654e-005)
(0.11786717 -8.2501738e-005 -8.3962069e-005)
(0.11781426 -6.8979391e-005 -6.7034899e-005)
(0.1177472 -5.7129092e-005 -4.7947289e-005)
(0.11763594 -5.586749e-005 -5.987923e-005)
(0.1174811 -7.4860416e-005 -6.0908638e-005)
(0.11736113 -8.8343196e-005 -8.9674079e-005)
(0.11725978 -7.8323848e-005 -0.00011623009)
(0.11723166 -7.0016998e-005 -0.00012615638)
(0.11727004 -6.7298626e-005 -0.00012213228)
(0.11728265 -6.3912898e-005 -0.0001081948)
(0.11732193 -6.3391707e-005 -6.8885385e-005)
(0.11741457 -7.6990066e-005 -1.8790265e-005)
(0.11747557 -0.00010394984 5.1648998e-005)
(0.12023236 -6.6643779e-005 0.00015643888)
(0.12026567 -7.5823531e-005 0.00020900248)
(0.12028789 -8.5139383e-005 0.00021375126)
(0.12031929 -8.1499048e-005 0.00020954051)
(0.12036232 -6.4439849e-005 0.00020567156)
(0.12040442 -4.0158283e-005 0.00020854295)
(0.12042435 -2.4030936e-005 0.00021407375)
(0.12039927 -2.4651892e-005 0.00023453495)
(0.12037073 -3.2195553e-005 0.00024069233)
(0.12027328 -2.4312868e-005 0.00023354671)
(0.12020312 -2.3903406e-005 0.00022210201)
(0.12020561 -2.9244773e-005 0.0002123393)
(0.12031549 -2.5321871e-005 0.00018332772)
(0.12042735 -2.5364128e-005 0.00012549502)
(0.12051986 -3.6235745e-005 5.7482292e-005)
(0.12059605 -4.1900054e-005 1.4782337e-005)
(0.12069352 -4.1588945e-005 -4.3565635e-005)
(0.12075162 -3.8067985e-005 -8.9663191e-005)
(0.12075902 -3.2055126e-005 -8.7250878e-005)
(0.1207299 -2.2058606e-005 -6.4475671e-005)
(0.12064031 -1.261489e-005 -4.6622895e-005)
(0.12048917 -1.9414904e-005 -3.492016e-005)
(0.12028835 -2.5307504e-005 -4.0356841e-005)
(0.12014055 -2.4537642e-005 -3.9604581e-005)
(0.12005325 -2.7460087e-005 -4.1024984e-005)
(0.12001978 -2.388163e-005 -3.7016612e-005)
(0.11999773 -1.9674075e-005 -3.9557528e-005)
(0.12000878 -2.179264e-005 -3.036488e-005)
(0.12010351 -3.4581302e-005 2.3881498e-006)
(0.12018646 -5.3533869e-005 7.2798826e-005)
(0.12267559 -1.5923503e-005 0.00015784304)
(0.12272605 -3.4602258e-005 0.00019468343)
(0.12276221 -5.7146099e-005 0.00020594067)
(0.12278051 -7.1489963e-005 0.00021338433)
(0.12284612 -6.9685551e-005 0.00023719645)
(0.12290888 -5.1705932e-005 0.00024622997)
(0.1229386 -3.2782511e-005 0.00022069786)
(0.12292235 -2.353675e-005 0.00019852593)
(0.1229023 -1.4167751e-005 0.00020061135)
(0.12283673 2.8564792e-006 0.0002070001)
(0.12278537 1.0672814e-006 0.00018443373)
(0.12273779 -9.2796064e-006 0.00016330687)
(0.12278447 -1.3617409e-005 0.00014638536)
(0.12286613 -2.2087394e-005 0.00010494732)
(0.12296447 -3.3763003e-005 3.5878136e-005)
(0.12305821 -3.3171658e-005 -1.2580471e-005)
(0.1231463 -2.3898507e-005 -3.9934778e-005)
(0.12323817 -1.4215001e-005 -5.9203712e-005)
(0.1232854 -2.7397573e-007 -7.3407347e-005)
(0.12322879 2.0319099e-005 -5.5291177e-005)
(0.12317964 3.5695766e-005 -1.1311537e-005)
(0.12308613 4.6607109e-005 1.0977434e-005)
(0.12298494 5.4464754e-005 1.8659959e-005)
(0.12287441 5.7676344e-005 4.4512383e-005)
(0.12274727 5.0703026e-005 6.7909906e-005)
(0.12264163 4.3709204e-005 7.3799102e-005)
(0.1225844 3.7158063e-005 6.2675645e-005)
(0.12257197 2.8414246e-005 6.5100857e-005)
(0.12262831 1.4487577e-005 9.1839013e-005)
(0.12265151 -1.4212926e-007 0.00012389078)
(0.1250081 3.695869e-005 0.00016878473)
(0.12504838 -7.9874917e-007 0.00016920416)
(0.12508747 -3.2655802e-005 0.00017945974)
(0.12511021 -5.7447318e-005 0.00019694684)
(0.12516541 -6.431146e-005 0.00023339157)
(0.12522095 -4.9847668e-005 0.00025863467)
(0.12526749 -3.1319253e-005 0.00023267938)
(0.12525113 -1.9483826e-005 0.00018943685)
(0.12522399 -6.6259103e-006 0.00016493781)
(0.12518708 1.320142e-005 0.00015306107)
(0.12518871 1.8750858e-005 0.00013504512)
(0.12516333 1.4783188e-005 0.00012317857)
(0.12515793 4.9704727e-006 0.00011858908)
(0.12514426 -1.7074967e-005 9.7839562e-005)
(0.12515069 -3.6796134e-005 5.4805246e-005)
(0.12518199 -3.3011195e-005 1.7603252e-005)
(0.12522697 -2.2514318e-005 7.1175764e-006)
(0.12528728 -1.7989598e-005 -2.0081275e-006)
(0.12533705 7.2978692e-006 -2.2652899e-005)
(0.12533374 3.8978967e-005 -2.6837669e-005)
(0.12532518 5.983809e-005 -1.3966145e-005)
(0.12529164 7.8656122e-005 -3.7153088e-006)
(0.12528665 9.9993104e-005 1.2898542e-005)
(0.12524025 0.00012425079 5.7581796e-005)
(0.12518653 0.00013289153 0.00010972369)
(0.12509933 0.00013182526 0.0001297324)
(0.12502125 0.00012091202 0.00013664053)
(0.12496562 0.00010477516 0.00014573915)
(0.12498099 8.9688744e-005 0.00016524041)
(0.12498299 7.192115e-005 0.00017483979)
(0.12710429 8.6550195e-005 0.00015686373)
(0.12714674 4.5156494e-005 0.00013914626)
(0.12721876 1.2746956e-005 0.00013559158)
(0.127279 -1.2143469e-005 0.00014257033)
(0.12734688 -2.6964292e-005 0.00015677206)
(0.12735569 -2.5627023e-005 0.0001725564)
(0.12735584 -1.2606975e-005 0.0001596395)
(0.12732176 -3.4366602e-006 0.00012450085)
(0.1273237 2.9436512e-006 8.980701e-005)
(0.12732185 8.6009304e-006 5.9531031e-005)
(0.12734916 3.9416468e-006 4.6048874e-005)
(0.12734491 -4.0062564e-007 5.7398569e-005)
(0.1273302 9.2708012e-007 7.0967782e-005)
(0.12728429 -8.211966e-006 6.0857736e-005)
(0.12723389 -2.8366869e-005 3.3079268e-005)
(0.12720013 -2.9836087e-005 1.1522803e-005)
(0.12720669 -2.0070792e-005 1.2742809e-005)
(0.12720016 -1.7489569e-005 8.0419817e-006)
(0.12723165 -7.7447184e-006 -9.8203199e-006)
(0.1272506 1.5499148e-005 -4.0202316e-005)
(0.12725211 4.4048245e-005 -6.4383333e-005)
(0.1272583 7.1756771e-005 -5.7100447e-005)
(0.12728591 0.00010183258 -2.2931849e-005)
(0.1272959 0.00013325646 2.9235708e-005)
(0.12729545 0.00014863267 8.6931533e-005)
(0.12722864 0.00015586784 0.00012415579)
(0.12714019 0.00015562035 0.00015154441)
(0.12703515 0.0001514219 0.00016872998)
(0.12701491 0.0001408699 0.00017687276)
(0.12703868 0.00012277033 0.00017246616)
(0.12888954 0.00011355433 0.00011030489)
(0.1289144 7.7838715e-005 8.3100335e-005)
(0.12901436 5.1849001e-005 5.7303778e-005)
(0.12913253 3.6109216e-005 4.3787649e-005)
(0.12922664 2.976316e-005 4.3517038e-005)
(0.12923038 3.2735824e-005 4.7596803e-005)
(0.12920329 3.8454853e-005 3.8364527e-005)
(0.12918437 3.0931596e-005 1.6020873e-005)
(0.12920198 1.6222448e-005 -5.3209518e-006)
(0.12923194 5.6645412e-006 -1.8692352e-005)
(0.12925912 -5.9812347e-006 -1.9485175e-005)
(0.1292545 -1.5439218e-005 2.625698e-006)
(0.1292272 -2.0262148e-005 2.9723589e-005)
(0.12921995 -2.7645012e-005 3.3116531e-005)
(0.1292173 -3.8867212e-005 1.711127e-005)
(0.12919615 -3.4068439e-005 -1.9433354e-006)
(0.12917626 -1.5984582e-005 -1.4187633e-005)
(0.12912195 -7.7365817e-006 -2.1118248e-005)
(0.12911735 -7.1732713e-006 -3.1733634e-005)
(0.12907775 5.6158613e-006 -5.2667085e-005)
(0.12902661 2.8142161e-005 -6.7452381e-005)
(0.1290112 5.4782433e-005 -5.9784205e-005)
(0.12905829 8.5456587e-005 -3.5067479e-005)
(0.12913022 0.00012175179 -1.4679275e-006)
(0.12917979 0.00014824166 4.2281984e-005)
(0.12913978 0.00016391737 7.897731e-005)
(0.12904467 0.00016848333 0.00010121125)
(0.12891689 0.00016549436 0.00012001099)
(0.12886404 0.0001580162 0.0001348)
(0.1288565 0.00014210291 0.00012902295)
(0.13072776 0.00010508297 6.0714421e-005)
(0.1306924 8.3091548e-005 2.9448588e-005)
(0.13070885 5.681894e-005 -7.3621498e-006)
(0.13077123 4.0995397e-005 -3.7835481e-005)
(0.13085345 4.0075155e-005 -5.0313869e-005)
(0.13091608 5.5417343e-005 -5.0210009e-005)
(0.13098827 6.7263495e-005 -5.4980377e-005)
(0.13105497 5.740519e-005 -6.706076e-005)
(0.13110229 3.3410468e-005 -7.3836324e-005)
(0.13112638 1.29701e-005 -6.6914136e-005)
(0.13114468 -4.6070772e-006 -5.3140083e-005)
(0.13114135 -1.6414286e-005 -3.0439188e-005)
(0.13111367 -3.219706e-005 -5.9935839e-006)
(0.13108119 -5.0841529e-005 8.2565724e-006)
(0.13104762 -6.2471521e-005 1.4110762e-005)
(0.13099588 -5.5763921e-005 7.9164365e-006)
(0.13095589 -3.7749773e-005 -1.3234699e-005)
(0.13090321 -3.1212963e-005 -2.0347954e-005)
(0.13087726 -3.5272687e-005 -1.4483303e-005)
(0.13084713 -2.8096473e-005 -6.8761932e-006)
(0.13079453 -1.4331164e-005 -4.5160858e-006)
(0.13074078 3.4198219e-006 -1.1043348e-005)
(0.13073452 2.8724299e-005 -2.4500928e-005)
(0.13077478 6.5295469e-005 -3.0653574e-005)
(0.13083429 9.7525248e-005 -1.7582071e-005)
(0.1308619 0.00012629957 4.0890229e-006)
(0.13085722 0.00014625889 2.0606363e-005)
(0.13082598 0.00014597448 4.1656365e-005)
(0.13079319 0.00013509202 6.578918e-005)
(0.13075948 0.00012081239 7.2331849e-005)
(0.13273626 8.5632525e-005 4.9174268e-008)
(0.13267291 7.6250404e-005 -1.7523749e-005)
(0.13263003 5.9851089e-005 -3.1411097e-005)
(0.13260093 5.1289619e-005 -4.4456951e-005)
(0.13262258 4.9842049e-005 -6.2289183e-005)
(0.13266415 5.4074231e-005 -7.4905373e-005)
(0.13274632 5.5998729e-005 -8.7526633e-005)
(0.13282901 4.4744403e-005 -9.7198147e-005)
(0.13287747 1.8600281e-005 -9.853113e-005)
(0.13291054 -4.5198378e-006 -9.2736998e-005)
(0.13295042 -2.348246e-005 -8.801917e-005)
(0.13298435 -3.5731268e-005 -8.3498002e-005)
(0.13300106 -4.507105e-005 -7.6579812e-005)
(0.13298494 -5.5295454e-005 -6.1391985e-005)
(0.13294046 -6.4112081e-005 -4.1690128e-005)
(0.1328757 -6.4798572e-005 -2.2794876e-005)
(0.13282211 -6.070937e-005 -1.6037629e-005)
(0.13276216 -5.7081483e-005 -9.3430444e-006)
(0.13272799 -6.1806434e-005 5.9385109e-006)
(0.13272558 -6.0860524e-005 2.9518098e-005)
(0.13275527 -5.1287115e-005 4.4431652e-005)
(0.13276894 -3.9570097e-005 4.601013e-005)
(0.13276068 -2.0425203e-005 3.3439859e-005)
(0.13275612 1.5266144e-005 2.3268305e-005)
(0.13277113 5.2083139e-005 2.0964964e-005)
(0.13278979 8.3936627e-005 2.3005499e-005)
(0.13282196 0.0001059137 2.4162367e-005)
(0.13285086 0.00011210346 2.5535916e-005)
(0.13284515 0.00010583909 2.3333171e-005)
(0.13279465 9.4386727e-005 1.4855986e-005)
(0.13448495 4.5268443e-005 -3.8142878e-005)
(0.13443229 4.2883844e-005 -4.5375101e-005)
(0.13439375 3.4779043e-005 -3.9602506e-005)
(0.13434633 2.8987841e-005 -2.7418854e-005)
(0.13433395 2.2510228e-005 -3.3482226e-005)
(0.13431849 2.0817392e-005 -5.875958e-005)
(0.13432571 1.9311981e-005 -8.4242876e-005)
(0.13435197 1.5169323e-005 -9.0287588e-005)
(0.13437286 -3.6948426e-006 -8.3020798e-005)
(0.13437924 -2.7314282e-005 -7.4653454e-005)
(0.13439283 -4.7623037e-005 -7.3316415e-005)
(0.13440999 -5.7900312e-005 -7.7049393e-005)
(0.13443519 -6.5337472e-005 -8.2571818e-005)
(0.13446217 -7.3129078e-005 -8.0543999e-005)
(0.13449991 -8.0122479e-005 -7.2664436e-005)
(0.1345277 -7.9591475e-005 -5.7377006e-005)
(0.13454344 -7.5450918e-005 -3.8271312e-005)
(0.13451361 -7.1395635e-005 -1.8422698e-005)
(0.13448815 -7.6237364e-005 -2.8784526e-006)
(0.13447639 -8.1380422e-005 1.6373761e-005)
(0.13450844 -7.8007957e-005 3.7880451e-005)
(0.13454987 -6.7183026e-005 6.3255202e-005)
(0.13457044 -5.5202326e-005 8.1305085e-005)
(0.1345685 -3.2193425e-005 8.4949872e-005)
(0.13457557 -4.4709812e-006 7.1158119e-005)
(0.13457549 2.3677094e-005 4.9485569e-005)
(0.13457659 4.210408e-005 2.9000019e-005)
(0.13456591 5.0610603e-005 1.0869375e-005)
(0.13455165 5.2529999e-005 -7.7733245e-006)
(0.13451985 4.933881e-005 -2.2579703e-005)
(0.13605097 -1.3839005e-005 -5.1150095e-005)
(0.13603939 -1.4013856e-005 -5.7711182e-005)
(0.13601552 -1.94374e-005 -5.4564519e-005)
(0.13597908 -2.3688821e-005 -3.9514134e-005)
(0.13595551 -2.9009385e-005 -3.1525418e-005)
(0.13591392 -3.0015323e-005 -3.795621e-005)
(0.13587459 -3.1421532e-005 -5.1304072e-005)
(0.13586597 -3.1226991e-005 -5.6764567e-005)
(0.13588212 -3.9135653e-005 -5.921846e-005)
(0.13589842 -4.8387356e-005 -6.2011633e-005)
(0.1359205 -5.7672418e-005 -6.5940815e-005)
(0.13594912 -6.1104406e-005 -6.6262603e-005)
(0.13598199 -6.5111324e-005 -6.8483247e-005)
(0.13599631 -7.0844086e-005 -7.121496e-005)
(0.13602304 -7.5173845e-005 -7.296993e-005)
(0.13606314 -7.131133e-005 -7.2482578e-005)
(0.13611681 -6.3776058e-005 -6.4872896e-005)
(0.13613728 -5.5852358e-005 -4.7712547e-005)
(0.13614426 -5.8277658e-005 -3.0238455e-005)
(0.13613147 -6.5835701e-005 -8.7941765e-006)
(0.13612311 -7.4783277e-005 1.3568412e-005)
(0.13612323 -7.5424208e-005 4.199976e-005)
(0.13613017 -7.2957161e-005 6.6396851e-005)
(0.13611992 -6.5736945e-005 7.7382346e-005)
(0.13612267 -5.8851602e-005 7.1477532e-005)
(0.13611935 -4.6180462e-005 5.4862317e-005)
(0.13610978 -3.2686049e-005 3.1094135e-005)
(0.13608529 -2.1477892e-005 6.5641954e-006)
(0.13606551 -1.6849019e-005 -1.7879248e-005)
(0.13604959 -1.463339e-005 -3.64915e-005)
(0.1376573 -9.1473938e-005 -1.1960742e-005)
(0.1376449 -7.6473952e-005 -1.5149103e-005)
(0.13763477 -6.8164024e-005 -2.5176064e-005)
(0.13761018 -6.1858659e-005 -3.2474105e-005)
(0.13759094 -5.9753605e-005 -3.894694e-005)
(0.1375466 -5.5481174e-005 -4.183747e-005)
(0.13749425 -5.4432541e-005 -4.6025985e-005)
(0.13745883 -5.0338733e-005 -5.1975843e-005)
(0.13745923 -5.2321049e-005 -6.5560917e-005)
(0.1374703 -5.7998119e-005 -7.986442e-005)
(0.13751342 -6.5425087e-005 -9.0684925e-005)
(0.13755978 -6.4639594e-005 -9.5479732e-005)
(0.13761932 -6.3112697e-005 -0.00010030739)
(0.13764753 -6.3129627e-005 -0.000102632)
(0.1376671 -6.8294001e-005 -9.9214852e-005)
(0.13767283 -7.0404082e-005 -9.3595301e-005)
(0.13768943 -7.1281676e-005 -8.5059389e-005)
(0.13769212 -6.9721742e-005 -7.0729685e-005)
(0.13771138 -7.5125945e-005 -6.0171052e-005)
(0.13772063 -8.619426e-005 -4.6276825e-005)
(0.13772478 -0.0001066992 -3.3220823e-005)
(0.13772125 -0.00012565967 -1.8885384e-005)
(0.13773426 -0.00014141751 -1.2706522e-006)
(0.13773771 -0.00014758918 1.2304434e-005)
(0.13774477 -0.00015078386 1.7847151e-005)
(0.13773835 -0.00014478814 1.7118948e-005)
(0.13773357 -0.00013430373 9.1591635e-006)
(0.13772137 -0.00012056342 1.4522088e-006)
(0.13771099 -0.00011105685 -4.811436e-006)
(0.13767639 -0.00010183502 -9.2161721e-006)
(0.13936138 -0.00013534738 2.7788617e-005)
(0.13933652 -0.00011917788 4.0045101e-005)
(0.13933194 -0.00010849633 4.6089146e-005)
(0.13931699 -0.00010443262 5.0840837e-005)
(0.1393085 -0.0001046629 5.1393627e-005)
(0.13929082 -0.0001001079 4.7939414e-005)
(0.13927143 -9.863569e-005 3.9901257e-005)
(0.13924456 -9.24201e-005 2.6059051e-005)
(0.13924163 -8.6185144e-005 7.2598865e-006)
(0.13922614 -8.4617939e-005 -1.0949526e-005)
(0.13921881 -8.8939986e-005 -2.2538685e-005)
(0.13921031 -8.7145248e-005 -2.9046964e-005)
(0.13923333 -8.0746643e-005 -3.7547447e-005)
(0.13925531 -6.9193136e-005 -4.6533082e-005)
(0.13928323 -5.9466955e-005 -4.9859792e-005)
(0.13930219 -4.9342285e-005 -4.9076733e-005)
(0.13933487 -4.423834e-005 -4.3597776e-005)
(0.13935371 -4.2357921e-005 -3.3205911e-005)
(0.1393771 -4.8004075e-005 -3.041434e-005)
(0.1393947 -5.7207744e-005 -3.1945389e-005)
(0.13941799 -7.3741106e-005 -3.3500619e-005)
(0.13942114 -9.0278381e-005 -3.2540375e-005)
(0.13942584 -0.00011026547 -2.173121e-005)
(0.13942324 -0.00012730042 -8.2888024e-006)
(0.13942959 -0.00014424735 1.4135242e-006)
(0.13942108 -0.00015565988 5.2821978e-006)
(0.13942323 -0.00016227896 6.5917662e-006)
(0.13941611 -0.00015925119 1.2401098e-005)
(0.13941559 -0.00015252751 1.616107e-005)
(0.13938936 -0.00014396845 1.8540604e-005)
(0.14114609 -0.00018470967 0.00011011041)